created by fftool

13752 atoms
2000 bonds
1000 angles
3 atom types
1 bond types
1 angle types
0.000000 118.430400 xlo xhi
0.000000 119.658000 ylo yhi
0.000000 42.000000 zlo zhi

Masses

   1   12.011  # C
   2    1.008  # H
   3   15.999  # O

Bond Coeffs

   1   517.630258     1.000000  # O-H

Angle Coeffs

   1    37.950526   109.420000  # H-O-H

Atoms

      1       1    1   0.000000 -9.748000e-03  7.810250e-01  3.901584e+00  # C graphite-A
      2       1    1   0.000000  5.344000e-03  5.054499e+00  3.901584e+00  # C graphite-A
      3       1    1   0.000000  2.043600e-02  9.327972e+00  3.901584e+00  # C graphite-A
      4       1    1   0.000000  3.552900e-02  1.360145e+01  3.901584e+00  # C graphite-A
      5       1    1   0.000000  5.062100e-02  1.787492e+01  3.901584e+00  # C graphite-A
      6       1    1   0.000000  6.571300e-02  2.214839e+01  3.901584e+00  # C graphite-A
      7       1    1   0.000000  8.080600e-02  2.642186e+01  3.901584e+00  # C graphite-A
      8       1    1   0.000000  9.589800e-02  3.069534e+01  3.901584e+00  # C graphite-A
      9       1    1   0.000000  1.109900e-01  3.496881e+01  3.901584e+00  # C graphite-A
     10       1    1   0.000000  1.260830e-01  3.924228e+01  3.901584e+00  # C graphite-A
     11       1    1   0.000000  1.411750e-01  4.351576e+01  3.901584e+00  # C graphite-A
     12       1    1   0.000000  1.562670e-01  4.778923e+01  3.901584e+00  # C graphite-A
     13       1    1   0.000000  1.713600e-01  5.206270e+01  3.901584e+00  # C graphite-A
     14       1    1   0.000000  1.864520e-01  5.633618e+01  3.901585e+00  # C graphite-A
     15       1    1   0.000000  2.015440e-01  6.060965e+01  3.901585e+00  # C graphite-A
     16       1    1   0.000000  2.166370e-01  6.488312e+01  3.901585e+00  # C graphite-A
     17       1    1   0.000000  2.317290e-01  6.915660e+01  3.901585e+00  # C graphite-A
     18       1    1   0.000000  2.468210e-01  7.343007e+01  3.901585e+00  # C graphite-A
     19       1    1   0.000000  2.619140e-01  7.770354e+01  3.901585e+00  # C graphite-A
     20       1    1   0.000000  2.770060e-01  8.197702e+01  3.901585e+00  # C graphite-A
     21       1    1   0.000000  2.920980e-01  8.625049e+01  3.901585e+00  # C graphite-A
     22       1    1   0.000000  3.071910e-01  9.052396e+01  3.901585e+00  # C graphite-A
     23       1    1   0.000000  3.222830e-01  9.479744e+01  3.901585e+00  # C graphite-A
     24       1    1   0.000000  3.373750e-01  9.907091e+01  3.901585e+00  # C graphite-A
     25       1    1   0.000000  3.524680e-01  1.033444e+02  3.901585e+00  # C graphite-A
     26       1    1   0.000000  3.675600e-01  1.076179e+02  3.901585e+00  # C graphite-A
     27       1    1   0.000000  3.826520e-01  1.118913e+02  3.901585e+00  # C graphite-A
     28       1    1   0.000000  3.977450e-01  1.161648e+02  3.901585e+00  # C graphite-A
     29       1    1   0.000000  2.457536e+00  7.723120e-01  3.901584e+00  # C graphite-A
     30       1    1   0.000000  2.472629e+00  5.045785e+00  3.901584e+00  # C graphite-A
     31       1    1   0.000000  2.487721e+00  9.319258e+00  3.901584e+00  # C graphite-A
     32       1    1   0.000000  2.502813e+00  1.359273e+01  3.901584e+00  # C graphite-A
     33       1    1   0.000000  2.517906e+00  1.786621e+01  3.901584e+00  # C graphite-A
     34       1    1   0.000000  2.532998e+00  2.213968e+01  3.901584e+00  # C graphite-A
     35       1    1   0.000000  2.548090e+00  2.641315e+01  3.901584e+00  # C graphite-A
     36       1    1   0.000000  2.563183e+00  3.068662e+01  3.901584e+00  # C graphite-A
     37       1    1   0.000000  2.578275e+00  3.496010e+01  3.901584e+00  # C graphite-A
     38       1    1   0.000000  2.593367e+00  3.923357e+01  3.901584e+00  # C graphite-A
     39       1    1   0.000000  2.608460e+00  4.350704e+01  3.901584e+00  # C graphite-A
     40       1    1   0.000000  2.623552e+00  4.778052e+01  3.901584e+00  # C graphite-A
     41       1    1   0.000000  2.638644e+00  5.205399e+01  3.901584e+00  # C graphite-A
     42       1    1   0.000000  2.653737e+00  5.632746e+01  3.901584e+00  # C graphite-A
     43       1    1   0.000000  2.668829e+00  6.060094e+01  3.901585e+00  # C graphite-A
     44       1    1   0.000000  2.683921e+00  6.487441e+01  3.901585e+00  # C graphite-A
     45       1    1   0.000000  2.699014e+00  6.914788e+01  3.901585e+00  # C graphite-A
     46       1    1   0.000000  2.714106e+00  7.342136e+01  3.901585e+00  # C graphite-A
     47       1    1   0.000000  2.729198e+00  7.769483e+01  3.901585e+00  # C graphite-A
     48       1    1   0.000000  2.744291e+00  8.196830e+01  3.901585e+00  # C graphite-A
     49       1    1   0.000000  2.759383e+00  8.624178e+01  3.901585e+00  # C graphite-A
     50       1    1   0.000000  2.774475e+00  9.051525e+01  3.901585e+00  # C graphite-A
     51       1    1   0.000000  2.789568e+00  9.478872e+01  3.901585e+00  # C graphite-A
     52       1    1   0.000000  2.804660e+00  9.906220e+01  3.901585e+00  # C graphite-A
     53       1    1   0.000000  2.819752e+00  1.033357e+02  3.901585e+00  # C graphite-A
     54       1    1   0.000000  2.834845e+00  1.076091e+02  3.901585e+00  # C graphite-A
     55       1    1   0.000000  2.849937e+00  1.118826e+02  3.901585e+00  # C graphite-A
     56       1    1   0.000000  2.865029e+00  1.161561e+02  3.901585e+00  # C graphite-A
     57       1    1   0.000000  4.924821e+00  7.635980e-01  3.901584e+00  # C graphite-A
     58       1    1   0.000000  4.939913e+00  5.037071e+00  3.901584e+00  # C graphite-A
     59       1    1   0.000000  4.955005e+00  9.310545e+00  3.901584e+00  # C graphite-A
     60       1    1   0.000000  4.970098e+00  1.358402e+01  3.901584e+00  # C graphite-A
     61       1    1   0.000000  4.985190e+00  1.785749e+01  3.901584e+00  # C graphite-A
     62       1    1   0.000000  5.000283e+00  2.213096e+01  3.901584e+00  # C graphite-A
     63       1    1   0.000000  5.015375e+00  2.640444e+01  3.901584e+00  # C graphite-A
     64       1    1   0.000000  5.030467e+00  3.067791e+01  3.901584e+00  # C graphite-A
     65       1    1   0.000000  5.045560e+00  3.495138e+01  3.901584e+00  # C graphite-A
     66       1    1   0.000000  5.060652e+00  3.922486e+01  3.901584e+00  # C graphite-A
     67       1    1   0.000000  5.075744e+00  4.349833e+01  3.901584e+00  # C graphite-A
     68       1    1   0.000000  5.090837e+00  4.777180e+01  3.901584e+00  # C graphite-A
     69       1    1   0.000000  5.105929e+00  5.204528e+01  3.901584e+00  # C graphite-A
     70       1    1   0.000000  5.121021e+00  5.631875e+01  3.901584e+00  # C graphite-A
     71       1    1   0.000000  5.136114e+00  6.059222e+01  3.901585e+00  # C graphite-A
     72       1    1   0.000000  5.151206e+00  6.486570e+01  3.901585e+00  # C graphite-A
     73       1    1   0.000000  5.166298e+00  6.913917e+01  3.901585e+00  # C graphite-A
     74       1    1   0.000000  5.181391e+00  7.341264e+01  3.901585e+00  # C graphite-A
     75       1    1   0.000000  5.196483e+00  7.768612e+01  3.901585e+00  # C graphite-A
     76       1    1   0.000000  5.211575e+00  8.195959e+01  3.901585e+00  # C graphite-A
     77       1    1   0.000000  5.226668e+00  8.623306e+01  3.901585e+00  # C graphite-A
     78       1    1   0.000000  5.241760e+00  9.050654e+01  3.901585e+00  # C graphite-A
     79       1    1   0.000000  5.256852e+00  9.478001e+01  3.901585e+00  # C graphite-A
     80       1    1   0.000000  5.271945e+00  9.905348e+01  3.901585e+00  # C graphite-A
     81       1    1   0.000000  5.287037e+00  1.033270e+02  3.901585e+00  # C graphite-A
     82       1    1   0.000000  5.302129e+00  1.076004e+02  3.901585e+00  # C graphite-A
     83       1    1   0.000000  5.317222e+00  1.118739e+02  3.901585e+00  # C graphite-A
     84       1    1   0.000000  5.332314e+00  1.161474e+02  3.901585e+00  # C graphite-A
     85       1    1   0.000000  7.392105e+00  7.548850e-01  3.901584e+00  # C graphite-A
     86       1    1   0.000000  7.407198e+00  5.028358e+00  3.901584e+00  # C graphite-A
     87       1    1   0.000000  7.422290e+00  9.301831e+00  3.901584e+00  # C graphite-A
     88       1    1   0.000000  7.437382e+00  1.357531e+01  3.901584e+00  # C graphite-A
     89       1    1   0.000000  7.452475e+00  1.784878e+01  3.901584e+00  # C graphite-A
     90       1    1   0.000000  7.467567e+00  2.212225e+01  3.901584e+00  # C graphite-A
     91       1    1   0.000000  7.482659e+00  2.639572e+01  3.901584e+00  # C graphite-A
     92       1    1   0.000000  7.497752e+00  3.066920e+01  3.901584e+00  # C graphite-A
     93       1    1   0.000000  7.512844e+00  3.494267e+01  3.901584e+00  # C graphite-A
     94       1    1   0.000000  7.527936e+00  3.921614e+01  3.901584e+00  # C graphite-A
     95       1    1   0.000000  7.543029e+00  4.348962e+01  3.901584e+00  # C graphite-A
     96       1    1   0.000000  7.558121e+00  4.776309e+01  3.901584e+00  # C graphite-A
     97       1    1   0.000000  7.573214e+00  5.203656e+01  3.901584e+00  # C graphite-A
     98       1    1   0.000000  7.588306e+00  5.631004e+01  3.901584e+00  # C graphite-A
     99       1    1   0.000000  7.603398e+00  6.058351e+01  3.901584e+00  # C graphite-A
    100       1    1   0.000000  7.618491e+00  6.485698e+01  3.901585e+00  # C graphite-A
    101       1    1   0.000000  7.633583e+00  6.913046e+01  3.901585e+00  # C graphite-A
    102       1    1   0.000000  7.648675e+00  7.340393e+01  3.901585e+00  # C graphite-A
    103       1    1   0.000000  7.663768e+00  7.767740e+01  3.901585e+00  # C graphite-A
    104       1    1   0.000000  7.678860e+00  8.195088e+01  3.901585e+00  # C graphite-A
    105       1    1   0.000000  7.693952e+00  8.622435e+01  3.901585e+00  # C graphite-A
    106       1    1   0.000000  7.709045e+00  9.049782e+01  3.901585e+00  # C graphite-A
    107       1    1   0.000000  7.724137e+00  9.477130e+01  3.901585e+00  # C graphite-A
    108       1    1   0.000000  7.739229e+00  9.904477e+01  3.901585e+00  # C graphite-A
    109       1    1   0.000000  7.754322e+00  1.033182e+02  3.901585e+00  # C graphite-A
    110       1    1   0.000000  7.769414e+00  1.075917e+02  3.901585e+00  # C graphite-A
    111       1    1   0.000000  7.784506e+00  1.118652e+02  3.901585e+00  # C graphite-A
    112       1    1   0.000000  7.799599e+00  1.161387e+02  3.901585e+00  # C graphite-A
    113       1    1   0.000000  9.859390e+00  7.461710e-01  3.901584e+00  # C graphite-A
    114       1    1   0.000000  9.874482e+00  5.019644e+00  3.901584e+00  # C graphite-A
    115       1    1   0.000000  9.889575e+00  9.293118e+00  3.901584e+00  # C graphite-A
    116       1    1   0.000000  9.904667e+00  1.356659e+01  3.901584e+00  # C graphite-A
    117       1    1   0.000000  9.919759e+00  1.784006e+01  3.901584e+00  # C graphite-A
    118       1    1   0.000000  9.934852e+00  2.211354e+01  3.901584e+00  # C graphite-A
    119       1    1   0.000000  9.949944e+00  2.638701e+01  3.901584e+00  # C graphite-A
    120       1    1   0.000000  9.965036e+00  3.066048e+01  3.901584e+00  # C graphite-A
    121       1    1   0.000000  9.980129e+00  3.493396e+01  3.901584e+00  # C graphite-A
    122       1    1   0.000000  9.995221e+00  3.920743e+01  3.901584e+00  # C graphite-A
    123       1    1   0.000000  1.001031e+01  4.348090e+01  3.901584e+00  # C graphite-A
    124       1    1   0.000000  1.002541e+01  4.775438e+01  3.901584e+00  # C graphite-A
    125       1    1   0.000000  1.004050e+01  5.202785e+01  3.901584e+00  # C graphite-A
    126       1    1   0.000000  1.005559e+01  5.630132e+01  3.901584e+00  # C graphite-A
    127       1    1   0.000000  1.007068e+01  6.057480e+01  3.901584e+00  # C graphite-A
    128       1    1   0.000000  1.008577e+01  6.484827e+01  3.901585e+00  # C graphite-A
    129       1    1   0.000000  1.010087e+01  6.912174e+01  3.901585e+00  # C graphite-A
    130       1    1   0.000000  1.011596e+01  7.339522e+01  3.901585e+00  # C graphite-A
    131       1    1   0.000000  1.013105e+01  7.766869e+01  3.901585e+00  # C graphite-A
    132       1    1   0.000000  1.014615e+01  8.194216e+01  3.901585e+00  # C graphite-A
    133       1    1   0.000000  1.016124e+01  8.621564e+01  3.901585e+00  # C graphite-A
    134       1    1   0.000000  1.017633e+01  9.048911e+01  3.901585e+00  # C graphite-A
    135       1    1   0.000000  1.019142e+01  9.476258e+01  3.901585e+00  # C graphite-A
    136       1    1   0.000000  1.020651e+01  9.903606e+01  3.901585e+00  # C graphite-A
    137       1    1   0.000000  1.022161e+01  1.033095e+02  3.901585e+00  # C graphite-A
    138       1    1   0.000000  1.023670e+01  1.075830e+02  3.901585e+00  # C graphite-A
    139       1    1   0.000000  1.025179e+01  1.118565e+02  3.901585e+00  # C graphite-A
    140       1    1   0.000000  1.026688e+01  1.161299e+02  3.901585e+00  # C graphite-A
    141       1    1   0.000000  1.232667e+01  7.374570e-01  3.901584e+00  # C graphite-A
    142       1    1   0.000000  1.234177e+01  5.010931e+00  3.901584e+00  # C graphite-A
    143       1    1   0.000000  1.235686e+01  9.284404e+00  3.901584e+00  # C graphite-A
    144       1    1   0.000000  1.237195e+01  1.355788e+01  3.901584e+00  # C graphite-A
    145       1    1   0.000000  1.238704e+01  1.783135e+01  3.901584e+00  # C graphite-A
    146       1    1   0.000000  1.240214e+01  2.210482e+01  3.901584e+00  # C graphite-A
    147       1    1   0.000000  1.241723e+01  2.637830e+01  3.901584e+00  # C graphite-A
    148       1    1   0.000000  1.243232e+01  3.065177e+01  3.901584e+00  # C graphite-A
    149       1    1   0.000000  1.244741e+01  3.492524e+01  3.901584e+00  # C graphite-A
    150       1    1   0.000000  1.246251e+01  3.919872e+01  3.901584e+00  # C graphite-A
    151       1    1   0.000000  1.247760e+01  4.347219e+01  3.901584e+00  # C graphite-A
    152       1    1   0.000000  1.249269e+01  4.774566e+01  3.901584e+00  # C graphite-A
    153       1    1   0.000000  1.250778e+01  5.201914e+01  3.901584e+00  # C graphite-A
    154       1    1   0.000000  1.252288e+01  5.629261e+01  3.901584e+00  # C graphite-A
    155       1    1   0.000000  1.253797e+01  6.056608e+01  3.901584e+00  # C graphite-A
    156       1    1   0.000000  1.255306e+01  6.483956e+01  3.901585e+00  # C graphite-A
    157       1    1   0.000000  1.256815e+01  6.911303e+01  3.901585e+00  # C graphite-A
    158       1    1   0.000000  1.258324e+01  7.338650e+01  3.901585e+00  # C graphite-A
    159       1    1   0.000000  1.259834e+01  7.765998e+01  3.901585e+00  # C graphite-A
    160       1    1   0.000000  1.261343e+01  8.193345e+01  3.901585e+00  # C graphite-A
    161       1    1   0.000000  1.262852e+01  8.620692e+01  3.901585e+00  # C graphite-A
    162       1    1   0.000000  1.264361e+01  9.048040e+01  3.901585e+00  # C graphite-A
    163       1    1   0.000000  1.265871e+01  9.475387e+01  3.901585e+00  # C graphite-A
    164       1    1   0.000000  1.267380e+01  9.902734e+01  3.901585e+00  # C graphite-A
    165       1    1   0.000000  1.268889e+01  1.033008e+02  3.901585e+00  # C graphite-A
    166       1    1   0.000000  1.270398e+01  1.075743e+02  3.901585e+00  # C graphite-A
    167       1    1   0.000000  1.271908e+01  1.118478e+02  3.901585e+00  # C graphite-A
    168       1    1   0.000000  1.273417e+01  1.161212e+02  3.901585e+00  # C graphite-A
    169       1    1   0.000000  1.479396e+01  7.287440e-01  3.901584e+00  # C graphite-A
    170       1    1   0.000000  1.480905e+01  5.002217e+00  3.901584e+00  # C graphite-A
    171       1    1   0.000000  1.482414e+01  9.275691e+00  3.901584e+00  # C graphite-A
    172       1    1   0.000000  1.483924e+01  1.354916e+01  3.901584e+00  # C graphite-A
    173       1    1   0.000000  1.485433e+01  1.782264e+01  3.901584e+00  # C graphite-A
    174       1    1   0.000000  1.486942e+01  2.209611e+01  3.901584e+00  # C graphite-A
    175       1    1   0.000000  1.488451e+01  2.636958e+01  3.901584e+00  # C graphite-A
    176       1    1   0.000000  1.489961e+01  3.064306e+01  3.901584e+00  # C graphite-A
    177       1    1   0.000000  1.491470e+01  3.491653e+01  3.901584e+00  # C graphite-A
    178       1    1   0.000000  1.492979e+01  3.919000e+01  3.901584e+00  # C graphite-A
    179       1    1   0.000000  1.494488e+01  4.346348e+01  3.901584e+00  # C graphite-A
    180       1    1   0.000000  1.495998e+01  4.773695e+01  3.901584e+00  # C graphite-A
    181       1    1   0.000000  1.497507e+01  5.201042e+01  3.901584e+00  # C graphite-A
    182       1    1   0.000000  1.499016e+01  5.628390e+01  3.901584e+00  # C graphite-A
    183       1    1   0.000000  1.500525e+01  6.055737e+01  3.901584e+00  # C graphite-A
    184       1    1   0.000000  1.502034e+01  6.483084e+01  3.901584e+00  # C graphite-A
    185       1    1   0.000000  1.503544e+01  6.910431e+01  3.901585e+00  # C graphite-A
    186       1    1   0.000000  1.505053e+01  7.337779e+01  3.901585e+00  # C graphite-A
    187       1    1   0.000000  1.506562e+01  7.765126e+01  3.901585e+00  # C graphite-A
    188       1    1   0.000000  1.508071e+01  8.192474e+01  3.901585e+00  # C graphite-A
    189       1    1   0.000000  1.509581e+01  8.619821e+01  3.901585e+00  # C graphite-A
    190       1    1   0.000000  1.511090e+01  9.047168e+01  3.901585e+00  # C graphite-A
    191       1    1   0.000000  1.512599e+01  9.474516e+01  3.901585e+00  # C graphite-A
    192       1    1   0.000000  1.514108e+01  9.901863e+01  3.901585e+00  # C graphite-A
    193       1    1   0.000000  1.515617e+01  1.032921e+02  3.901585e+00  # C graphite-A
    194       1    1   0.000000  1.517127e+01  1.075656e+02  3.901585e+00  # C graphite-A
    195       1    1   0.000000  1.518636e+01  1.118390e+02  3.901585e+00  # C graphite-A
    196       1    1   0.000000  1.520145e+01  1.161125e+02  3.901585e+00  # C graphite-A
    197       1    1   0.000000  1.726124e+01  7.200300e-01  3.901584e+00  # C graphite-A
    198       1    1   0.000000  1.727634e+01  4.993504e+00  3.901584e+00  # C graphite-A
    199       1    1   0.000000  1.729143e+01  9.266977e+00  3.901584e+00  # C graphite-A
    200       1    1   0.000000  1.730652e+01  1.354045e+01  3.901584e+00  # C graphite-A
    201       1    1   0.000000  1.732161e+01  1.781392e+01  3.901584e+00  # C graphite-A
    202       1    1   0.000000  1.733671e+01  2.208740e+01  3.901584e+00  # C graphite-A
    203       1    1   0.000000  1.735180e+01  2.636087e+01  3.901584e+00  # C graphite-A
    204       1    1   0.000000  1.736689e+01  3.063434e+01  3.901584e+00  # C graphite-A
    205       1    1   0.000000  1.738198e+01  3.490782e+01  3.901584e+00  # C graphite-A
    206       1    1   0.000000  1.739708e+01  3.918129e+01  3.901584e+00  # C graphite-A
    207       1    1   0.000000  1.741217e+01  4.345476e+01  3.901584e+00  # C graphite-A
    208       1    1   0.000000  1.742726e+01  4.772824e+01  3.901584e+00  # C graphite-A
    209       1    1   0.000000  1.744235e+01  5.200171e+01  3.901584e+00  # C graphite-A
    210       1    1   0.000000  1.745744e+01  5.627518e+01  3.901584e+00  # C graphite-A
    211       1    1   0.000000  1.747254e+01  6.054866e+01  3.901584e+00  # C graphite-A
    212       1    1   0.000000  1.748763e+01  6.482213e+01  3.901584e+00  # C graphite-A
    213       1    1   0.000000  1.750272e+01  6.909560e+01  3.901585e+00  # C graphite-A
    214       1    1   0.000000  1.751781e+01  7.336907e+01  3.901585e+00  # C graphite-A
    215       1    1   0.000000  1.753291e+01  7.764255e+01  3.901585e+00  # C graphite-A
    216       1    1   0.000000  1.754800e+01  8.191602e+01  3.901585e+00  # C graphite-A
    217       1    1   0.000000  1.756309e+01  8.618949e+01  3.901585e+00  # C graphite-A
    218       1    1   0.000000  1.757818e+01  9.046297e+01  3.901585e+00  # C graphite-A
    219       1    1   0.000000  1.759327e+01  9.473644e+01  3.901585e+00  # C graphite-A
    220       1    1   0.000000  1.760837e+01  9.900992e+01  3.901585e+00  # C graphite-A
    221       1    1   0.000000  1.762346e+01  1.032834e+02  3.901585e+00  # C graphite-A
    222       1    1   0.000000  1.763855e+01  1.075569e+02  3.901585e+00  # C graphite-A
    223       1    1   0.000000  1.765365e+01  1.118303e+02  3.901585e+00  # C graphite-A
    224       1    1   0.000000  1.766874e+01  1.161038e+02  3.901585e+00  # C graphite-A
    225       1    1   0.000000  1.972853e+01  7.113170e-01  3.901583e+00  # C graphite-A
    226       1    1   0.000000  1.974362e+01  4.984790e+00  3.901584e+00  # C graphite-A
    227       1    1   0.000000  1.975871e+01  9.258264e+00  3.901584e+00  # C graphite-A
    228       1    1   0.000000  1.977380e+01  1.353174e+01  3.901584e+00  # C graphite-A
    229       1    1   0.000000  1.978890e+01  1.780521e+01  3.901584e+00  # C graphite-A
    230       1    1   0.000000  1.980399e+01  2.207868e+01  3.901584e+00  # C graphite-A
    231       1    1   0.000000  1.981908e+01  2.635216e+01  3.901584e+00  # C graphite-A
    232       1    1   0.000000  1.983417e+01  3.062563e+01  3.901584e+00  # C graphite-A
    233       1    1   0.000000  1.984927e+01  3.489910e+01  3.901584e+00  # C graphite-A
    234       1    1   0.000000  1.986436e+01  3.917258e+01  3.901584e+00  # C graphite-A
    235       1    1   0.000000  1.987945e+01  4.344605e+01  3.901584e+00  # C graphite-A
    236       1    1   0.000000  1.989454e+01  4.771952e+01  3.901584e+00  # C graphite-A
    237       1    1   0.000000  1.990964e+01  5.199300e+01  3.901584e+00  # C graphite-A
    238       1    1   0.000000  1.992473e+01  5.626647e+01  3.901584e+00  # C graphite-A
    239       1    1   0.000000  1.993982e+01  6.053994e+01  3.901584e+00  # C graphite-A
    240       1    1   0.000000  1.995491e+01  6.481342e+01  3.901584e+00  # C graphite-A
    241       1    1   0.000000  1.997001e+01  6.908689e+01  3.901585e+00  # C graphite-A
    242       1    1   0.000000  1.998510e+01  7.336036e+01  3.901585e+00  # C graphite-A
    243       1    1   0.000000  2.000019e+01  7.763384e+01  3.901585e+00  # C graphite-A
    244       1    1   0.000000  2.001528e+01  8.190731e+01  3.901585e+00  # C graphite-A
    245       1    1   0.000000  2.003037e+01  8.618078e+01  3.901585e+00  # C graphite-A
    246       1    1   0.000000  2.004547e+01  9.045426e+01  3.901585e+00  # C graphite-A
    247       1    1   0.000000  2.006056e+01  9.472773e+01  3.901585e+00  # C graphite-A
    248       1    1   0.000000  2.007565e+01  9.900120e+01  3.901585e+00  # C graphite-A
    249       1    1   0.000000  2.009074e+01  1.032747e+02  3.901585e+00  # C graphite-A
    250       1    1   0.000000  2.010584e+01  1.075481e+02  3.901585e+00  # C graphite-A
    251       1    1   0.000000  2.012093e+01  1.118216e+02  3.901585e+00  # C graphite-A
    252       1    1   0.000000  2.013602e+01  1.160951e+02  3.901585e+00  # C graphite-A
    253       1    1   0.000000  2.219581e+01  7.026030e-01  3.901583e+00  # C graphite-A
    254       1    1   0.000000  2.221090e+01  4.976077e+00  3.901584e+00  # C graphite-A
    255       1    1   0.000000  2.222600e+01  9.249550e+00  3.901584e+00  # C graphite-A
    256       1    1   0.000000  2.224109e+01  1.352302e+01  3.901584e+00  # C graphite-A
    257       1    1   0.000000  2.225618e+01  1.779650e+01  3.901584e+00  # C graphite-A
    258       1    1   0.000000  2.227127e+01  2.206997e+01  3.901584e+00  # C graphite-A
    259       1    1   0.000000  2.228637e+01  2.634344e+01  3.901584e+00  # C graphite-A
    260       1    1   0.000000  2.230146e+01  3.061692e+01  3.901584e+00  # C graphite-A
    261       1    1   0.000000  2.231655e+01  3.489039e+01  3.901584e+00  # C graphite-A
    262       1    1   0.000000  2.233164e+01  3.916386e+01  3.901584e+00  # C graphite-A
    263       1    1   0.000000  2.234674e+01  4.343734e+01  3.901584e+00  # C graphite-A
    264       1    1   0.000000  2.236183e+01  4.771081e+01  3.901584e+00  # C graphite-A
    265       1    1   0.000000  2.237692e+01  5.198428e+01  3.901584e+00  # C graphite-A
    266       1    1   0.000000  2.239201e+01  5.625776e+01  3.901584e+00  # C graphite-A
    267       1    1   0.000000  2.240711e+01  6.053123e+01  3.901584e+00  # C graphite-A
    268       1    1   0.000000  2.242220e+01  6.480470e+01  3.901584e+00  # C graphite-A
    269       1    1   0.000000  2.243729e+01  6.907818e+01  3.901584e+00  # C graphite-A
    270       1    1   0.000000  2.245238e+01  7.335165e+01  3.901585e+00  # C graphite-A
    271       1    1   0.000000  2.246747e+01  7.762512e+01  3.901585e+00  # C graphite-A
    272       1    1   0.000000  2.248257e+01  8.189860e+01  3.901585e+00  # C graphite-A
    273       1    1   0.000000  2.249766e+01  8.617207e+01  3.901585e+00  # C graphite-A
    274       1    1   0.000000  2.251275e+01  9.044554e+01  3.901585e+00  # C graphite-A
    275       1    1   0.000000  2.252784e+01  9.471901e+01  3.901585e+00  # C graphite-A
    276       1    1   0.000000  2.254294e+01  9.899249e+01  3.901585e+00  # C graphite-A
    277       1    1   0.000000  2.255803e+01  1.032660e+02  3.901585e+00  # C graphite-A
    278       1    1   0.000000  2.257312e+01  1.075394e+02  3.901585e+00  # C graphite-A
    279       1    1   0.000000  2.258821e+01  1.118129e+02  3.901585e+00  # C graphite-A
    280       1    1   0.000000  2.260330e+01  1.160864e+02  3.901585e+00  # C graphite-A
    281       1    1   0.000000  2.466310e+01  6.938900e-01  3.901583e+00  # C graphite-A
    282       1    1   0.000000  2.467819e+01  4.967363e+00  3.901584e+00  # C graphite-A
    283       1    1   0.000000  2.469328e+01  9.240836e+00  3.901584e+00  # C graphite-A
    284       1    1   0.000000  2.470837e+01  1.351431e+01  3.901584e+00  # C graphite-A
    285       1    1   0.000000  2.472347e+01  1.778778e+01  3.901584e+00  # C graphite-A
    286       1    1   0.000000  2.473856e+01  2.206125e+01  3.901584e+00  # C graphite-A
    287       1    1   0.000000  2.475365e+01  2.633473e+01  3.901584e+00  # C graphite-A
    288       1    1   0.000000  2.476874e+01  3.060820e+01  3.901584e+00  # C graphite-A
    289       1    1   0.000000  2.478383e+01  3.488168e+01  3.901584e+00  # C graphite-A
    290       1    1   0.000000  2.479893e+01  3.915515e+01  3.901584e+00  # C graphite-A
    291       1    1   0.000000  2.481402e+01  4.342862e+01  3.901584e+00  # C graphite-A
    292       1    1   0.000000  2.482911e+01  4.770210e+01  3.901584e+00  # C graphite-A
    293       1    1   0.000000  2.484420e+01  5.197557e+01  3.901584e+00  # C graphite-A
    294       1    1   0.000000  2.485930e+01  5.624904e+01  3.901584e+00  # C graphite-A
    295       1    1   0.000000  2.487439e+01  6.052252e+01  3.901584e+00  # C graphite-A
    296       1    1   0.000000  2.488948e+01  6.479599e+01  3.901584e+00  # C graphite-A
    297       1    1   0.000000  2.490457e+01  6.906946e+01  3.901584e+00  # C graphite-A
    298       1    1   0.000000  2.491967e+01  7.334293e+01  3.901585e+00  # C graphite-A
    299       1    1   0.000000  2.493476e+01  7.761641e+01  3.901585e+00  # C graphite-A
    300       1    1   0.000000  2.494985e+01  8.188988e+01  3.901585e+00  # C graphite-A
    301       1    1   0.000000  2.496494e+01  8.616335e+01  3.901585e+00  # C graphite-A
    302       1    1   0.000000  2.498004e+01  9.043683e+01  3.901585e+00  # C graphite-A
    303       1    1   0.000000  2.499513e+01  9.471030e+01  3.901585e+00  # C graphite-A
    304       1    1   0.000000  2.501022e+01  9.898377e+01  3.901585e+00  # C graphite-A
    305       1    1   0.000000  2.502531e+01  1.032572e+02  3.901585e+00  # C graphite-A
    306       1    1   0.000000  2.504040e+01  1.075307e+02  3.901585e+00  # C graphite-A
    307       1    1   0.000000  2.505550e+01  1.118042e+02  3.901585e+00  # C graphite-A
    308       1    1   0.000000  2.507059e+01  1.160777e+02  3.901585e+00  # C graphite-A
    309       1    1   0.000000  2.713038e+01  6.851760e-01  3.901583e+00  # C graphite-A
    310       1    1   0.000000  2.714547e+01  4.958650e+00  3.901583e+00  # C graphite-A
    311       1    1   0.000000  2.716057e+01  9.232123e+00  3.901584e+00  # C graphite-A
    312       1    1   0.000000  2.717566e+01  1.350560e+01  3.901584e+00  # C graphite-A
    313       1    1   0.000000  2.719075e+01  1.777907e+01  3.901584e+00  # C graphite-A
    314       1    1   0.000000  2.720584e+01  2.205254e+01  3.901584e+00  # C graphite-A
    315       1    1   0.000000  2.722094e+01  2.632602e+01  3.901584e+00  # C graphite-A
    316       1    1   0.000000  2.723603e+01  3.059949e+01  3.901584e+00  # C graphite-A
    317       1    1   0.000000  2.725112e+01  3.487296e+01  3.901584e+00  # C graphite-A
    318       1    1   0.000000  2.726621e+01  3.914643e+01  3.901584e+00  # C graphite-A
    319       1    1   0.000000  2.728130e+01  4.341991e+01  3.901584e+00  # C graphite-A
    320       1    1   0.000000  2.729640e+01  4.769338e+01  3.901584e+00  # C graphite-A
    321       1    1   0.000000  2.731149e+01  5.196686e+01  3.901584e+00  # C graphite-A
    322       1    1   0.000000  2.732658e+01  5.624033e+01  3.901584e+00  # C graphite-A
    323       1    1   0.000000  2.734167e+01  6.051380e+01  3.901584e+00  # C graphite-A
    324       1    1   0.000000  2.735677e+01  6.478727e+01  3.901584e+00  # C graphite-A
    325       1    1   0.000000  2.737186e+01  6.906075e+01  3.901584e+00  # C graphite-A
    326       1    1   0.000000  2.738695e+01  7.333422e+01  3.901584e+00  # C graphite-A
    327       1    1   0.000000  2.740204e+01  7.760769e+01  3.901585e+00  # C graphite-A
    328       1    1   0.000000  2.741714e+01  8.188117e+01  3.901585e+00  # C graphite-A
    329       1    1   0.000000  2.743223e+01  8.615464e+01  3.901585e+00  # C graphite-A