created by fftool

13752 atoms
2000 bonds
1000 angles
3 atom types
1 bond types
1 angle types
0.000000 118.430400 xlo xhi
0.000000 119.658000 ylo yhi
0.000000 40.000000 zlo zhi

Masses

   1   12.011  # C
   2    1.008  # H
   3   15.999  # O

Bond Coeffs

   1   517.630258     1.000000  # O-H

Angle Coeffs

   1    37.950526   109.420000  # H-O-H

Atoms

      1       1    1   0.000000  2.467300e+00  1.424498e+00  0.000000e+00  # C graphite-B
      2       1    1   0.000000  2.467300e+00  5.697998e+00  0.000000e+00  # C graphite-B
      3       1    1   0.000000  2.467300e+00  9.971498e+00  0.000000e+00  # C graphite-B
      4       1    1   0.000000  2.467300e+00  1.424500e+01  0.000000e+00  # C graphite-B
      5       1    1   0.000000  2.467300e+00  1.851850e+01  0.000000e+00  # C graphite-B
      6       1    1   0.000000  2.467300e+00  2.279200e+01  0.000000e+00  # C graphite-B
      7       1    1   0.000000  2.467300e+00  2.706550e+01  0.000000e+00  # C graphite-B
      8       1    1   0.000000  2.467300e+00  3.133900e+01  0.000000e+00  # C graphite-B
      9       1    1   0.000000  2.467300e+00  3.561250e+01  0.000000e+00  # C graphite-B
     10       1    1   0.000000  2.467300e+00  3.988600e+01  0.000000e+00  # C graphite-B
     11       1    1   0.000000  2.467300e+00  4.415950e+01  0.000000e+00  # C graphite-B
     12       1    1   0.000000  2.467300e+00  4.843300e+01  0.000000e+00  # C graphite-B
     13       1    1   0.000000  2.467300e+00  5.270650e+01  0.000000e+00  # C graphite-B
     14       1    1   0.000000  2.467300e+00  5.698000e+01  0.000000e+00  # C graphite-B
     15       1    1   0.000000  2.467300e+00  6.125350e+01  0.000000e+00  # C graphite-B
     16       1    1   0.000000  2.467300e+00  6.552700e+01  0.000000e+00  # C graphite-B
     17       1    1   0.000000  2.467300e+00  6.980050e+01  0.000000e+00  # C graphite-B
     18       1    1   0.000000  2.467300e+00  7.407400e+01  0.000000e+00  # C graphite-B
     19       1    1   0.000000  2.467300e+00  7.834750e+01  0.000000e+00  # C graphite-B
     20       1    1   0.000000  2.467300e+00  8.262099e+01  0.000000e+00  # C graphite-B
     21       1    1   0.000000  2.467300e+00  8.689449e+01  0.000000e+00  # C graphite-B
     22       1    1   0.000000  2.467300e+00  9.116800e+01  0.000000e+00  # C graphite-B
     23       1    1   0.000000  2.467300e+00  9.544150e+01  0.000000e+00  # C graphite-B
     24       1    1   0.000000  2.467300e+00  9.971500e+01  0.000000e+00  # C graphite-B
     25       1    1   0.000000  2.467300e+00  1.039885e+02  0.000000e+00  # C graphite-B
     26       1    1   0.000000  2.467300e+00  1.082620e+02  0.000000e+00  # C graphite-B
     27       1    1   0.000000  2.467300e+00  1.125355e+02  0.000000e+00  # C graphite-B
     28       1    1   0.000000  2.467300e+00  1.168090e+02  0.000000e+00  # C graphite-B
     29       1    1   0.000000  4.934600e+00  1.424498e+00  0.000000e+00  # C graphite-B
     30       1    1   0.000000  4.934600e+00  5.697998e+00  0.000000e+00  # C graphite-B
     31       1    1   0.000000  4.934600e+00  9.971498e+00  0.000000e+00  # C graphite-B
     32       1    1   0.000000  4.934600e+00  1.424500e+01  0.000000e+00  # C graphite-B
     33       1    1   0.000000  4.934600e+00  1.851850e+01  0.000000e+00  # C graphite-B
     34       1    1   0.000000  4.934600e+00  2.279200e+01  0.000000e+00  # C graphite-B
     35       1    1   0.000000  4.934600e+00  2.706550e+01  0.000000e+00  # C graphite-B
     36       1    1   0.000000  4.934600e+00  3.133900e+01  0.000000e+00  # C graphite-B
     37       1    1   0.000000  4.934600e+00  3.561250e+01  0.000000e+00  # C graphite-B
     38       1    1   0.000000  4.934600e+00  3.988600e+01  0.000000e+00  # C graphite-B
     39       1    1   0.000000  4.934600e+00  4.415950e+01  0.000000e+00  # C graphite-B
     40       1    1   0.000000  4.934600e+00  4.843300e+01  0.000000e+00  # C graphite-B
     41       1    1   0.000000  4.934600e+00  5.270650e+01  0.000000e+00  # C graphite-B
     42       1    1   0.000000  4.934600e+00  5.698000e+01  0.000000e+00  # C graphite-B
     43       1    1   0.000000  4.934600e+00  6.125350e+01  0.000000e+00  # C graphite-B
     44       1    1   0.000000  4.934600e+00  6.552700e+01  0.000000e+00  # C graphite-B
     45       1    1   0.000000  4.934600e+00  6.980050e+01  0.000000e+00  # C graphite-B
     46       1    1   0.000000  4.934600e+00  7.407400e+01  0.000000e+00  # C graphite-B
     47       1    1   0.000000  4.934600e+00  7.834750e+01  0.000000e+00  # C graphite-B
     48       1    1   0.000000  4.934600e+00  8.262099e+01  0.000000e+00  # C graphite-B
     49       1    1   0.000000  4.934600e+00  8.689449e+01  0.000000e+00  # C graphite-B
     50       1    1   0.000000  4.934600e+00  9.116800e+01  0.000000e+00  # C graphite-B
     51       1    1   0.000000  4.934600e+00  9.544150e+01  0.000000e+00  # C graphite-B
     52       1    1   0.000000  4.934600e+00  9.971500e+01  0.000000e+00  # C graphite-B
     53       1    1   0.000000  4.934600e+00  1.039885e+02  0.000000e+00  # C graphite-B
     54       1    1   0.000000  4.934600e+00  1.082620e+02  0.000000e+00  # C graphite-B
     55       1    1   0.000000  4.934600e+00  1.125355e+02  0.000000e+00  # C graphite-B
     56       1    1   0.000000  4.934600e+00  1.168090e+02  0.000000e+00  # C graphite-B
     57       1    1   0.000000  7.401900e+00  1.424498e+00  0.000000e+00  # C graphite-B
     58       1    1   0.000000  7.401900e+00  5.697998e+00  0.000000e+00  # C graphite-B
     59       1    1   0.000000  7.401900e+00  9.971498e+00  0.000000e+00  # C graphite-B
     60       1    1   0.000000  7.401900e+00  1.424500e+01  0.000000e+00  # C graphite-B
     61       1    1   0.000000  7.401900e+00  1.851850e+01  0.000000e+00  # C graphite-B
     62       1    1   0.000000  7.401900e+00  2.279200e+01  0.000000e+00  # C graphite-B
     63       1    1   0.000000  7.401900e+00  2.706550e+01  0.000000e+00  # C graphite-B
     64       1    1   0.000000  7.401900e+00  3.133900e+01  0.000000e+00  # C graphite-B
     65       1    1   0.000000  7.401900e+00  3.561250e+01  0.000000e+00  # C graphite-B
     66       1    1   0.000000  7.401900e+00  3.988600e+01  0.000000e+00  # C graphite-B
     67       1    1   0.000000  7.401900e+00  4.415950e+01  0.000000e+00  # C graphite-B
     68       1    1   0.000000  7.401900e+00  4.843300e+01  0.000000e+00  # C graphite-B
     69       1    1   0.000000  7.401900e+00  5.270650e+01  0.000000e+00  # C graphite-B
     70       1    1   0.000000  7.401900e+00  5.698000e+01  0.000000e+00  # C graphite-B
     71       1    1   0.000000  7.401900e+00  6.125350e+01  0.000000e+00  # C graphite-B
     72       1    1   0.000000  7.401900e+00  6.552700e+01  0.000000e+00  # C graphite-B
     73       1    1   0.000000  7.401900e+00  6.980050e+01  0.000000e+00  # C graphite-B
     74       1    1   0.000000  7.401900e+00  7.407400e+01  0.000000e+00  # C graphite-B
     75       1    1   0.000000  7.401900e+00  7.834750e+01  0.000000e+00  # C graphite-B
     76       1    1   0.000000  7.401900e+00  8.262099e+01  0.000000e+00  # C graphite-B
     77       1    1   0.000000  7.401900e+00  8.689449e+01  0.000000e+00  # C graphite-B
     78       1    1   0.000000  7.401900e+00  9.116800e+01  0.000000e+00  # C graphite-B
     79       1    1   0.000000  7.401900e+00  9.544150e+01  0.000000e+00  # C graphite-B
     80       1    1   0.000000  7.401900e+00  9.971500e+01  0.000000e+00  # C graphite-B
     81       1    1   0.000000  7.401900e+00  1.039885e+02  0.000000e+00  # C graphite-B
     82       1    1   0.000000  7.401900e+00  1.082620e+02  0.000000e+00  # C graphite-B
     83       1    1   0.000000  7.401900e+00  1.125355e+02  0.000000e+00  # C graphite-B
     84       1    1   0.000000  7.401900e+00  1.168090e+02  0.000000e+00  # C graphite-B
     85       1    1   0.000000  9.869200e+00  1.424498e+00  0.000000e+00  # C graphite-B
     86       1    1   0.000000  9.869200e+00  5.697998e+00  0.000000e+00  # C graphite-B
     87       1    1   0.000000  9.869200e+00  9.971498e+00  0.000000e+00  # C graphite-B
     88       1    1   0.000000  9.869200e+00  1.424500e+01  0.000000e+00  # C graphite-B
     89       1    1   0.000000  9.869200e+00  1.851850e+01  0.000000e+00  # C graphite-B
     90       1    1   0.000000  9.869200e+00  2.279200e+01  0.000000e+00  # C graphite-B
     91       1    1   0.000000  9.869200e+00  2.706550e+01  0.000000e+00  # C graphite-B
     92       1    1   0.000000  9.869200e+00  3.133900e+01  0.000000e+00  # C graphite-B
     93       1    1   0.000000  9.869200e+00  3.561250e+01  0.000000e+00  # C graphite-B
     94       1    1   0.000000  9.869200e+00  3.988600e+01  0.000000e+00  # C graphite-B
     95       1    1   0.000000  9.869200e+00  4.415950e+01  0.000000e+00  # C graphite-B
     96       1    1   0.000000  9.869200e+00  4.843300e+01  0.000000e+00  # C graphite-B
     97       1    1   0.000000  9.869200e+00  5.270650e+01  0.000000e+00  # C graphite-B
     98       1    1   0.000000  9.869200e+00  5.698000e+01  0.000000e+00  # C graphite-B
     99       1    1   0.000000  9.869200e+00  6.125350e+01  0.000000e+00  # C graphite-B
    100       1    1   0.000000  9.869200e+00  6.552700e+01  0.000000e+00  # C graphite-B
    101       1    1   0.000000  9.869200e+00  6.980050e+01  0.000000e+00  # C graphite-B
    102       1    1   0.000000  9.869200e+00  7.407400e+01  0.000000e+00  # C graphite-B
    103       1    1   0.000000  9.869200e+00  7.834750e+01  0.000000e+00  # C graphite-B
    104       1    1   0.000000  9.869200e+00  8.262099e+01  0.000000e+00  # C graphite-B
    105       1    1   0.000000  9.869200e+00  8.689449e+01  0.000000e+00  # C graphite-B
    106       1    1   0.000000  9.869200e+00  9.116800e+01  0.000000e+00  # C graphite-B
    107       1    1   0.000000  9.869200e+00  9.544150e+01  0.000000e+00  # C graphite-B
    108       1    1   0.000000  9.869200e+00  9.971500e+01  0.000000e+00  # C graphite-B
    109       1    1   0.000000  9.869200e+00  1.039885e+02  0.000000e+00  # C graphite-B
    110       1    1   0.000000  9.869200e+00  1.082620e+02  0.000000e+00  # C graphite-B
    111       1    1   0.000000  9.869200e+00  1.125355e+02  0.000000e+00  # C graphite-B
    112       1    1   0.000000  9.869200e+00  1.168090e+02  0.000000e+00  # C graphite-B
    113       1    1   0.000000  1.233650e+01  1.424498e+00  0.000000e+00  # C graphite-B
    114       1    1   0.000000  1.233650e+01  5.697998e+00  0.000000e+00  # C graphite-B
    115       1    1   0.000000  1.233650e+01  9.971498e+00  0.000000e+00  # C graphite-B
    116       1    1   0.000000  1.233650e+01  1.424500e+01  0.000000e+00  # C graphite-B
    117       1    1   0.000000  1.233650e+01  1.851850e+01  0.000000e+00  # C graphite-B
    118       1    1   0.000000  1.233650e+01  2.279200e+01  0.000000e+00  # C graphite-B
    119       1    1   0.000000  1.233650e+01  2.706550e+01  0.000000e+00  # C graphite-B
    120       1    1   0.000000  1.233650e+01  3.133900e+01  0.000000e+00  # C graphite-B
    121       1    1   0.000000  1.233650e+01  3.561250e+01  0.000000e+00  # C graphite-B
    122       1    1   0.000000  1.233650e+01  3.988600e+01  0.000000e+00  # C graphite-B
    123       1    1   0.000000  1.233650e+01  4.415950e+01  0.000000e+00  # C graphite-B
    124       1    1   0.000000  1.233650e+01  4.843300e+01  0.000000e+00  # C graphite-B
    125       1    1   0.000000  1.233650e+01  5.270650e+01  0.000000e+00  # C graphite-B
    126       1    1   0.000000  1.233650e+01  5.698000e+01  0.000000e+00  # C graphite-B
    127       1    1   0.000000  1.233650e+01  6.125350e+01  0.000000e+00  # C graphite-B
    128       1    1   0.000000  1.233650e+01  6.552700e+01  0.000000e+00  # C graphite-B
    129       1    1   0.000000  1.233650e+01  6.980050e+01  0.000000e+00  # C graphite-B
    130       1    1   0.000000  1.233650e+01  7.407400e+01  0.000000e+00  # C graphite-B
    131       1    1   0.000000  1.233650e+01  7.834750e+01  0.000000e+00  # C graphite-B
    132       1    1   0.000000  1.233650e+01  8.262099e+01  0.000000e+00  # C graphite-B
    133       1    1   0.000000  1.233650e+01  8.689449e+01  0.000000e+00  # C graphite-B
    134       1    1   0.000000  1.233650e+01  9.116800e+01  0.000000e+00  # C graphite-B
    135       1    1   0.000000  1.233650e+01  9.544150e+01  0.000000e+00  # C graphite-B
    136       1    1   0.000000  1.233650e+01  9.971500e+01  0.000000e+00  # C graphite-B
    137       1    1   0.000000  1.233650e+01  1.039885e+02  0.000000e+00  # C graphite-B
    138       1    1   0.000000  1.233650e+01  1.082620e+02  0.000000e+00  # C graphite-B
    139       1    1   0.000000  1.233650e+01  1.125355e+02  0.000000e+00  # C graphite-B
    140       1    1   0.000000  1.233650e+01  1.168090e+02  0.000000e+00  # C graphite-B
    141       1    1   0.000000  1.480380e+01  1.424498e+00  0.000000e+00  # C graphite-B
    142       1    1   0.000000  1.480380e+01  5.697998e+00  0.000000e+00  # C graphite-B
    143       1    1   0.000000  1.480380e+01  9.971498e+00  0.000000e+00  # C graphite-B
    144       1    1   0.000000  1.480380e+01  1.424500e+01  0.000000e+00  # C graphite-B
    145       1    1   0.000000  1.480380e+01  1.851850e+01  0.000000e+00  # C graphite-B
    146       1    1   0.000000  1.480380e+01  2.279200e+01  0.000000e+00  # C graphite-B
    147       1    1   0.000000  1.480380e+01  2.706550e+01  0.000000e+00  # C graphite-B
    148       1    1   0.000000  1.480380e+01  3.133900e+01  0.000000e+00  # C graphite-B
    149       1    1   0.000000  1.480380e+01  3.561250e+01  0.000000e+00  # C graphite-B
    150       1    1   0.000000  1.480380e+01  3.988600e+01  0.000000e+00  # C graphite-B
    151       1    1   0.000000  1.480380e+01  4.415950e+01  0.000000e+00  # C graphite-B
    152       1    1   0.000000  1.480380e+01  4.843300e+01  0.000000e+00  # C graphite-B
    153       1    1   0.000000  1.480380e+01  5.270650e+01  0.000000e+00  # C graphite-B
    154       1    1   0.000000  1.480380e+01  5.698000e+01  0.000000e+00  # C graphite-B
    155       1    1   0.000000  1.480380e+01  6.125350e+01  0.000000e+00  # C graphite-B
    156       1    1   0.000000  1.480380e+01  6.552700e+01  0.000000e+00  # C graphite-B
    157       1    1   0.000000  1.480380e+01  6.980050e+01  0.000000e+00  # C graphite-B
    158       1    1   0.000000  1.480380e+01  7.407400e+01  0.000000e+00  # C graphite-B
    159       1    1   0.000000  1.480380e+01  7.834750e+01  0.000000e+00  # C graphite-B
    160       1    1   0.000000  1.480380e+01  8.262099e+01  0.000000e+00  # C graphite-B
    161       1    1   0.000000  1.480380e+01  8.689449e+01  0.000000e+00  # C graphite-B
    162       1    1   0.000000  1.480380e+01  9.116800e+01  0.000000e+00  # C graphite-B
    163       1    1   0.000000  1.480380e+01  9.544150e+01  0.000000e+00  # C graphite-B
    164       1    1   0.000000  1.480380e+01  9.971500e+01  0.000000e+00  # C graphite-B
    165       1    1   0.000000  1.480380e+01  1.039885e+02  0.000000e+00  # C graphite-B
    166       1    1   0.000000  1.480380e+01  1.082620e+02  0.000000e+00  # C graphite-B
    167       1    1   0.000000  1.480380e+01  1.125355e+02  0.000000e+00  # C graphite-B
    168       1    1   0.000000  1.480380e+01  1.168090e+02  0.000000e+00  # C graphite-B
    169       1    1   0.000000  1.727110e+01  1.424498e+00  0.000000e+00  # C graphite-B
    170       1    1   0.000000  1.727110e+01  5.697998e+00  0.000000e+00  # C graphite-B
    171       1    1   0.000000  1.727110e+01  9.971498e+00  0.000000e+00  # C graphite-B
    172       1    1   0.000000  1.727110e+01  1.424500e+01  0.000000e+00  # C graphite-B
    173       1    1   0.000000  1.727110e+01  1.851850e+01  0.000000e+00  # C graphite-B
    174       1    1   0.000000  1.727110e+01  2.279200e+01  0.000000e+00  # C graphite-B
    175       1    1   0.000000  1.727110e+01  2.706550e+01  0.000000e+00  # C graphite-B
    176       1    1   0.000000  1.727110e+01  3.133900e+01  0.000000e+00  # C graphite-B
    177       1    1   0.000000  1.727110e+01  3.561250e+01  0.000000e+00  # C graphite-B
    178       1    1   0.000000  1.727110e+01  3.988600e+01  0.000000e+00  # C graphite-B
    179       1    1   0.000000  1.727110e+01  4.415950e+01  0.000000e+00  # C graphite-B
    180       1    1   0.000000  1.727110e+01  4.843300e+01  0.000000e+00  # C graphite-B
    181       1    1   0.000000  1.727110e+01  5.270650e+01  0.000000e+00  # C graphite-B
    182       1    1   0.000000  1.727110e+01  5.698000e+01  0.000000e+00  # C graphite-B
    183       1    1   0.000000  1.727110e+01  6.125350e+01  0.000000e+00  # C graphite-B
    184       1    1   0.000000  1.727110e+01  6.552700e+01  0.000000e+00  # C graphite-B
    185       1    1   0.000000  1.727110e+01  6.980050e+01  0.000000e+00  # C graphite-B
    186       1    1   0.000000  1.727110e+01  7.407400e+01  0.000000e+00  # C graphite-B
    187       1    1   0.000000  1.727110e+01  7.834750e+01  0.000000e+00  # C graphite-B
    188       1    1   0.000000  1.727110e+01  8.262099e+01  0.000000e+00  # C graphite-B
    189       1    1   0.000000  1.727110e+01  8.689449e+01  0.000000e+00  # C graphite-B
    190       1    1   0.000000  1.727110e+01  9.116800e+01  0.000000e+00  # C graphite-B
    191       1    1   0.000000  1.727110e+01  9.544150e+01  0.000000e+00  # C graphite-B
    192       1    1   0.000000  1.727110e+01  9.971500e+01  0.000000e+00  # C graphite-B
    193       1    1   0.000000  1.727110e+01  1.039885e+02  0.000000e+00  # C graphite-B
    194       1    1   0.000000  1.727110e+01  1.082620e+02  0.000000e+00  # C graphite-B
    195       1    1   0.000000  1.727110e+01  1.125355e+02  0.000000e+00  # C graphite-B
    196       1    1   0.000000  1.727110e+01  1.168090e+02  0.000000e+00  # C graphite-B
    197       1    1   0.000000  1.973840e+01  1.424498e+00  0.000000e+00  # C graphite-B
    198       1    1   0.000000  1.973840e+01  5.697998e+00  0.000000e+00  # C graphite-B
    199       1    1   0.000000  1.973840e+01  9.971498e+00  0.000000e+00  # C graphite-B
    200       1    1   0.000000  1.973840e+01  1.424500e+01  0.000000e+00  # C graphite-B
    201       1    1   0.000000  1.973840e+01  1.851850e+01  0.000000e+00  # C graphite-B
    202       1    1   0.000000  1.973840e+01  2.279200e+01  0.000000e+00  # C graphite-B
    203       1    1   0.000000  1.973840e+01  2.706550e+01  0.000000e+00  # C graphite-B
    204       1    1   0.000000  1.973840e+01  3.133900e+01  0.000000e+00  # C graphite-B
    205       1    1   0.000000  1.973840e+01  3.561250e+01  0.000000e+00  # C graphite-B
    206       1    1   0.000000  1.973840e+01  3.988600e+01  0.000000e+00  # C graphite-B
    207       1    1   0.000000  1.973840e+01  4.415950e+01  0.000000e+00  # C graphite-B
    208       1    1   0.000000  1.973840e+01  4.843300e+01  0.000000e+00  # C graphite-B
    209       1    1   0.000000  1.973840e+01  5.270650e+01  0.000000e+00  # C graphite-B
    210       1    1   0.000000  1.973840e+01  5.698000e+01  0.000000e+00  # C graphite-B
    211       1    1   0.000000  1.973840e+01  6.125350e+01  0.000000e+00  # C graphite-B
    212       1    1   0.000000  1.973840e+01  6.552700e+01  0.000000e+00  # C graphite-B
    213       1    1   0.000000  1.973840e+01  6.980050e+01  0.000000e+00  # C graphite-B
    214       1    1   0.000000  1.973840e+01  7.407400e+01  0.000000e+00  # C graphite-B
    215       1    1   0.000000  1.973840e+01  7.834750e+01  0.000000e+00  # C graphite-B
    216       1    1   0.000000  1.973840e+01  8.262099e+01  0.000000e+00  # C graphite-B
    217       1    1   0.000000  1.973840e+01  8.689449e+01  0.000000e+00  # C graphite-B
    218       1    1   0.000000  1.973840e+01  9.116800e+01  0.000000e+00  # C graphite-B
    219       1    1   0.000000  1.973840e+01  9.544150e+01  0.000000e+00  # C graphite-B
    220       1    1   0.000000  1.973840e+01  9.971500e+01  0.000000e+00  # C graphite-B
    221       1    1   0.000000  1.973840e+01  1.039885e+02  0.000000e+00  # C graphite-B
    222       1    1   0.000000  1.973840e+01  1.082620e+02  0.000000e+00  # C graphite-B
    223       1    1   0.000000  1.973840e+01  1.125355e+02  0.000000e+00  # C graphite-B
    224       1    1   0.000000  1.973840e+01  1.168090e+02  0.000000e+00  # C graphite-B
    225       1    1   0.000000  2.220570e+01  1.424498e+00  0.000000e+00  # C graphite-B
    226       1    1   0.000000  2.220570e+01  5.697998e+00  0.000000e+00  # C graphite-B
    227       1    1   0.000000  2.220570e+01  9.971498e+00  0.000000e+00  # C graphite-B
    228       1    1   0.000000  2.220570e+01  1.424500e+01  0.000000e+00  # C graphite-B
    229       1    1   0.000000  2.220570e+01  1.851850e+01  0.000000e+00  # C graphite-B
    230       1    1   0.000000  2.220570e+01  2.279200e+01  0.000000e+00  # C graphite-B
    231       1    1   0.000000  2.220570e+01  2.706550e+01  0.000000e+00  # C graphite-B
    232       1    1   0.000000  2.220570e+01  3.133900e+01  0.000000e+00  # C graphite-B
    233       1    1   0.000000  2.220570e+01  3.561250e+01  0.000000e+00  # C graphite-B
    234       1    1   0.000000  2.220570e+01  3.988600e+01  0.000000e+00  # C graphite-B
    235       1    1   0.000000  2.220570e+01  4.415950e+01  0.000000e+00  # C graphite-B
    236       1    1   0.000000  2.220570e+01  4.843300e+01  0.000000e+00  # C graphite-B
    237       1    1   0.000000  2.220570e+01  5.270650e+01  0.000000e+00  # C graphite-B
    238       1    1   0.000000  2.220570e+01  5.698000e+01  0.000000e+00  # C graphite-B
    239       1    1   0.000000  2.220570e+01  6.125350e+01  0.000000e+00  # C graphite-B
    240       1    1   0.000000  2.220570e+01  6.552700e+01  0.000000e+00  # C graphite-B
    241       1    1   0.000000  2.220570e+01  6.980050e+01  0.000000e+00  # C graphite-B
    242       1    1   0.000000  2.220570e+01  7.407400e+01  0.000000e+00  # C graphite-B
    243       1    1   0.000000  2.220570e+01  7.834750e+01  0.000000e+00  # C graphite-B
    244       1    1   0.000000  2.220570e+01  8.262099e+01  0.000000e+00  # C graphite-B
    245       1    1   0.000000  2.220570e+01  8.689449e+01  0.000000e+00  # C graphite-B
    246       1    1   0.000000  2.220570e+01  9.116800e+01  0.000000e+00  # C graphite-B
    247       1    1   0.000000  2.220570e+01  9.544150e+01  0.000000e+00  # C graphite-B
    248       1    1   0.000000  2.220570e+01  9.971500e+01  0.000000e+00  # C graphite-B
    249       1    1   0.000000  2.220570e+01  1.039885e+02  0.000000e+00  # C graphite-B
    250       1    1   0.000000  2.220570e+01  1.082620e+02  0.000000e+00  # C graphite-B
    251       1    1   0.000000  2.220570e+01  1.125355e+02  0.000000e+00  # C graphite-B
    252       1    1   0.000000  2.220570e+01  1.168090e+02  0.000000e+00  # C graphite-B
    253       1    1   0.000000  2.467300e+01  1.424498e+00  0.000000e+00  # C graphite-B
    254       1    1   0.000000  2.467300e+01  5.697998e+00  0.000000e+00  # C graphite-B
    255       1    1   0.000000  2.467300e+01  9.971498e+00  0.000000e+00  # C graphite-B
    256       1    1   0.000000  2.467300e+01  1.424500e+01  0.000000e+00  # C graphite-B
    257       1    1   0.000000  2.467300e+01  1.851850e+01  0.000000e+00  # C graphite-B
    258       1    1   0.000000  2.467300e+01  2.279200e+01  0.000000e+00  # C graphite-B
    259       1    1   0.000000  2.467300e+01  2.706550e+01  0.000000e+00  # C graphite-B
    260       1    1   0.000000  2.467300e+01  3.133900e+01  0.000000e+00  # C graphite-B
    261       1    1   0.000000  2.467300e+01  3.561250e+01  0.000000e+00  # C graphite-B
    262       1    1   0.000000  2.467300e+01  3.988600e+01  0.000000e+00  # C graphite-B
    263       1    1   0.000000  2.467300e+01  4.415950e+01  0.000000e+00  # C graphite-B
    264       1    1   0.000000  2.467300e+01  4.843300e+01  0.000000e+00  # C graphite-B
    265       1    1   0.000000  2.467300e+01  5.270650e+01  0.000000e+00  # C graphite-B
    266       1    1   0.000000  2.467300e+01  5.698000e+01  0.000000e+00  # C graphite-B
    267       1    1   0.000000  2.467300e+01  6.125350e+01  0.000000e+00  # C graphite-B
    268       1    1   0.000000  2.467300e+01  6.552700e+01  0.000000e+00  # C graphite-B
    269       1    1   0.000000  2.467300e+01  6.980050e+01  0.000000e+00  # C graphite-B
    270       1    1   0.000000  2.467300e+01  7.407400e+01  0.000000e+00  # C graphite-B
    271       1    1   0.000000  2.467300e+01  7.834750e+01  0.000000e+00  # C graphite-B
    272       1    1   0.000000  2.467300e+01  8.262099e+01  0.000000e+00  # C graphite-B
    273       1    1   0.000000  2.467300e+01  8.689449e+01  0.000000e+00  # C graphite-B
    274       1    1   0.000000  2.467300e+01  9.116800e+01  0.000000e+00  # C graphite-B
    275       1    1   0.000000  2.467300e+01  9.544150e+01  0.000000e+00  # C graphite-B
    276       1    1   0.000000  2.467300e+01  9.971500e+01  0.000000e+00  # C graphite-B
    277       1    1   0.000000  2.467300e+01  1.039885e+02  0.000000e+00  # C graphite-B
    278       1    1   0.000000  2.467300e+01  1.082620e+02  0.000000e+00  # C graphite-B
    279       1    1   0.000000  2.467300e+01  1.125355e+02  0.000000e+00  # C graphite-B
    280       1    1   0.000000  2.467300e+01  1.168090e+02  0.000000e+00  # C graphite-B
    281       1    1   0.000000  2.714030e+01  1.424498e+00  0.000000e+00  # C graphite-B
    282       1    1   0.000000  2.714030e+01  5.697998e+00  0.000000e+00  # C graphite-B
    283       1    1   0.000000  2.714030e+01  9.971498e+00  0.000000e+00  # C graphite-B
    284       1    1   0.000000  2.714030e+01  1.424500e+01  0.000000e+00  # C graphite-B
    285       1    1   0.000000  2.714030e+01  1.851850e+01  0.000000e+00  # C graphite-B
    286       1    1   0.000000  2.714030e+01  2.279200e+01  0.000000e+00  # C graphite-B
    287       1    1   0.000000  2.714030e+01  2.706550e+01  0.000000e+00  # C graphite-B
    288       1    1   0.000000  2.714030e+01  3.133900e+01  0.000000e+00  # C graphite-B
    289       1    1   0.000000  2.714030e+01  3.561250e+01  0.000000e+00  # C graphite-B
    290       1    1   0.000000  2.714030e+01  3.988600e+01  0.000000e+00  # C graphite-B
    291       1    1   0.000000  2.714030e+01  4.415950e+01  0.000000e+00  # C graphite-B
    292       1    1   0.000000  2.714030e+01  4.843300e+01  0.000000e+00  # C graphite-B
    293       1    1   0.000000  2.714030e+01  5.270650e+01  0.000000e+00  # C graphite-B
    294       1    1   0.000000  2.714030e+01  5.698000e+01  0.000000e+00  # C graphite-B
    295       1    1   0.000000  2.714030e+01  6.125350e+01  0.000000e+00  # C graphite-B
    296       1    1   0.000000  2.714030e+01  6.552700e+01  0.000000e+00  # C graphite-B
    297       1    1   0.000000  2.714030e+01  6.980050e+01  0.000000e+00  # C graphite-B
    298       1    1   0.000000  2.714030e+01  7.407400e+01  0.000000e+00  # C graphite-B
    299       1    1   0.000000  2.714030e+01  7.834750e+01  0.000000e+00  # C graphite-B
    300       1    1   0.000000  2.714030e+01  8.262099e+01  0.000000e+00  # C graphite-B
    301       1    1   0.000000  2.714030e+01  8.689449e+01  0.000000e+00  # C graphite-B
    302       1    1   0.000000  2.714030e+01  9.116800e+01  0.000000e+00  # C graphite-B
    303       1    1   0.000000  2.714030e+01  9.544150e+01  0.000000e+00  # C graphite-B
    304       1    1   0.000000  2.714030e+01  9.971500e+01  0.000000e+00  # C graphite-B
    305       1    1   0.000000  2.714030e+01  1.039885e+02  0.000000e+00  # C graphite-B
    306       1    1   0.000000  2.714030e+01  1.082620e+02  0.000000e+00  # C graphite-B
    307       1    1   0.000000  2.714030e+01  1.125355e+02  0.000000e+00  # C graphite-B
    308       1    1   0.000000  2.714030e+01  1.168090e+02  0.000000e+00  # C graphite-B
    309       1    1   0.000000  2.960760e+01  1.424498e+00  0.000000e+00  # C graphite-B
    310       1    1   0.000000  2.960760e+01  5.697998e+00  0.000000e+00  # C graphite-B
    311       1    1   0.000000  2.960760e+01  9.971498e+00  0.000000e+00  # C graphite-B
    312       1    1   0.000000  2.960760e+01  1.424500e+01  0.000000e+00  # C graphite-B
    313       1    1   0.000000  2.960760e+01  1.851850e+01  0.000000e+00  # C graphite-B
    314       1    1   0.000000  2.960760e+01  2.279200e+01  0.000000e+00  # C graphite-B
    315       1    1   0.000000  2.960760e+01  2.706550e+01  0.000000e+00  # C graphite-B
    316       1    1   0.000000  2.960760e+01  3.133900e+01  0.000000e+00  # C graphite-B
    317       1    1   0.000000  2.960760e+01  3.561250e+01  0.000000e+00  # C graphite-B
    318       1    1   0.000000  2.960760e+01  3.988600e+01  0.000000e+00  # C graphite-B
    319       1    1   0.000000  2.960760e+01  4.415950e+01  0.000000e+00  # C graphite-B
    320       1    1   0.000000  2.960760e+01  4.843300e+01  0.000000e+00  # C graphite-B
    321       1    1   0.000000  2.960760e+01  5.270650e+01  0.000000e+00  # C graphite-B
    322       1    1   0.000000  2.960760e+01  5.698000e+01  0.000000e+00  # C graphite-B
    323       1    1   0.000000  2.960760e+01  6.125350e+01  0.000000e+00  # C graphite-B
    324       1    1   0.000000  2.960760e+01  6.552700e+01  0.000000e+00  # C graphite-B
    325       1    1   0.000000  2.960760e+01  6.980050e+01  0.000000e+00  # C graphite-B
    326       1    1   0.000000  2.960760e+01  7.407400e+01  0.000000e+00  # C graphite-B
    327       1    1   0.000000  2.960760e+01  7.834750e+01  0.000000e+00  # C graphite-B
    328       1    1   0.000000  2.960760e+01  8.262099e+01  0.000000e+00  # C graphite-B
    329       1    1   0.000000  2.960760e+01  8.689449e+01  0.000000e+00  # C graphite-B