created by fftool

13752 atoms
2000 bonds
1000 angles
3 atom types
1 bond types
1 angle types
0.000000 118.430400 xlo xhi
0.000000 119.658000 ylo yhi
0.000000 40.000000 zlo zhi

Masses

   1   12.011  # C
   2    1.008  # H
   3   15.999  # O

Bond Coeffs

   1   517.630258     1.000000  # O-H

Angle Coeffs

   1    37.950526   109.420000  # H-O-H

Atoms

      1       1    1   0.000000  2.467300e+00  1.424498e+00  1.950775e+00  # C graphite-A
      2       1    1   0.000000  2.467300e+00  5.697998e+00  1.950775e+00  # C graphite-A
      3       1    1   0.000000  2.467300e+00  9.971498e+00  1.950775e+00  # C graphite-A
      4       1    1   0.000000  2.467300e+00  1.424500e+01  1.950775e+00  # C graphite-A
      5       1    1   0.000000  2.467300e+00  1.851850e+01  1.950775e+00  # C graphite-A
      6       1    1   0.000000  2.467300e+00  2.279200e+01  1.950775e+00  # C graphite-A
      7       1    1   0.000000  2.467300e+00  2.706550e+01  1.950775e+00  # C graphite-A
      8       1    1   0.000000  2.467300e+00  3.133900e+01  1.950775e+00  # C graphite-A
      9       1    1   0.000000  2.467300e+00  3.561250e+01  1.950775e+00  # C graphite-A
     10       1    1   0.000000  2.467300e+00  3.988600e+01  1.950775e+00  # C graphite-A
     11       1    1   0.000000  2.467300e+00  4.415950e+01  1.950775e+00  # C graphite-A
     12       1    1   0.000000  2.467300e+00  4.843300e+01  1.950775e+00  # C graphite-A
     13       1    1   0.000000  2.467300e+00  5.270650e+01  1.950775e+00  # C graphite-A
     14       1    1   0.000000  2.467300e+00  5.698000e+01  1.950775e+00  # C graphite-A
     15       1    1   0.000000  2.467300e+00  6.125350e+01  1.950775e+00  # C graphite-A
     16       1    1   0.000000  2.467300e+00  6.552700e+01  1.950775e+00  # C graphite-A
     17       1    1   0.000000  2.467300e+00  6.980050e+01  1.950775e+00  # C graphite-A
     18       1    1   0.000000  2.467300e+00  7.407400e+01  1.950775e+00  # C graphite-A
     19       1    1   0.000000  2.467300e+00  7.834750e+01  1.950775e+00  # C graphite-A
     20       1    1   0.000000  2.467300e+00  8.262099e+01  1.950775e+00  # C graphite-A
     21       1    1   0.000000  2.467300e+00  8.689449e+01  1.950775e+00  # C graphite-A
     22       1    1   0.000000  2.467300e+00  9.116800e+01  1.950775e+00  # C graphite-A
     23       1    1   0.000000  2.467300e+00  9.544150e+01  1.950775e+00  # C graphite-A
     24       1    1   0.000000  2.467300e+00  9.971500e+01  1.950775e+00  # C graphite-A
     25       1    1   0.000000  2.467300e+00  1.039885e+02  1.950775e+00  # C graphite-A
     26       1    1   0.000000  2.467300e+00  1.082620e+02  1.950775e+00  # C graphite-A
     27       1    1   0.000000  2.467300e+00  1.125355e+02  1.950775e+00  # C graphite-A
     28       1    1   0.000000  2.467300e+00  1.168090e+02  1.950775e+00  # C graphite-A
     29       1    1   0.000000  4.934600e+00  1.424498e+00  1.950775e+00  # C graphite-A
     30       1    1   0.000000  4.934600e+00  5.697998e+00  1.950775e+00  # C graphite-A
     31       1    1   0.000000  4.934600e+00  9.971498e+00  1.950775e+00  # C graphite-A
     32       1    1   0.000000  4.934600e+00  1.424500e+01  1.950775e+00  # C graphite-A
     33       1    1   0.000000  4.934600e+00  1.851850e+01  1.950775e+00  # C graphite-A
     34       1    1   0.000000  4.934600e+00  2.279200e+01  1.950775e+00  # C graphite-A
     35       1    1   0.000000  4.934600e+00  2.706550e+01  1.950775e+00  # C graphite-A
     36       1    1   0.000000  4.934600e+00  3.133900e+01  1.950775e+00  # C graphite-A
     37       1    1   0.000000  4.934600e+00  3.561250e+01  1.950775e+00  # C graphite-A
     38       1    1   0.000000  4.934600e+00  3.988600e+01  1.950775e+00  # C graphite-A
     39       1    1   0.000000  4.934600e+00  4.415950e+01  1.950775e+00  # C graphite-A
     40       1    1   0.000000  4.934600e+00  4.843300e+01  1.950775e+00  # C graphite-A
     41       1    1   0.000000  4.934600e+00  5.270650e+01  1.950775e+00  # C graphite-A
     42       1    1   0.000000  4.934600e+00  5.698000e+01  1.950775e+00  # C graphite-A
     43       1    1   0.000000  4.934600e+00  6.125350e+01  1.950775e+00  # C graphite-A
     44       1    1   0.000000  4.934600e+00  6.552700e+01  1.950775e+00  # C graphite-A
     45       1    1   0.000000  4.934600e+00  6.980050e+01  1.950775e+00  # C graphite-A
     46       1    1   0.000000  4.934600e+00  7.407400e+01  1.950775e+00  # C graphite-A
     47       1    1   0.000000  4.934600e+00  7.834750e+01  1.950775e+00  # C graphite-A
     48       1    1   0.000000  4.934600e+00  8.262099e+01  1.950775e+00  # C graphite-A
     49       1    1   0.000000  4.934600e+00  8.689449e+01  1.950775e+00  # C graphite-A
     50       1    1   0.000000  4.934600e+00  9.116800e+01  1.950775e+00  # C graphite-A
     51       1    1   0.000000  4.934600e+00  9.544150e+01  1.950775e+00  # C graphite-A
     52       1    1   0.000000  4.934600e+00  9.971500e+01  1.950775e+00  # C graphite-A
     53       1    1   0.000000  4.934600e+00  1.039885e+02  1.950775e+00  # C graphite-A
     54       1    1   0.000000  4.934600e+00  1.082620e+02  1.950775e+00  # C graphite-A
     55       1    1   0.000000  4.934600e+00  1.125355e+02  1.950775e+00  # C graphite-A
     56       1    1   0.000000  4.934600e+00  1.168090e+02  1.950775e+00  # C graphite-A
     57       1    1   0.000000  7.401900e+00  1.424498e+00  1.950775e+00  # C graphite-A
     58       1    1   0.000000  7.401900e+00  5.697998e+00  1.950775e+00  # C graphite-A
     59       1    1   0.000000  7.401900e+00  9.971498e+00  1.950775e+00  # C graphite-A
     60       1    1   0.000000  7.401900e+00  1.424500e+01  1.950775e+00  # C graphite-A
     61       1    1   0.000000  7.401900e+00  1.851850e+01  1.950775e+00  # C graphite-A
     62       1    1   0.000000  7.401900e+00  2.279200e+01  1.950775e+00  # C graphite-A
     63       1    1   0.000000  7.401900e+00  2.706550e+01  1.950775e+00  # C graphite-A
     64       1    1   0.000000  7.401900e+00  3.133900e+01  1.950775e+00  # C graphite-A
     65       1    1   0.000000  7.401900e+00  3.561250e+01  1.950775e+00  # C graphite-A
     66       1    1   0.000000  7.401900e+00  3.988600e+01  1.950775e+00  # C graphite-A
     67       1    1   0.000000  7.401900e+00  4.415950e+01  1.950775e+00  # C graphite-A
     68       1    1   0.000000  7.401900e+00  4.843300e+01  1.950775e+00  # C graphite-A
     69       1    1   0.000000  7.401900e+00  5.270650e+01  1.950775e+00  # C graphite-A
     70       1    1   0.000000  7.401900e+00  5.698000e+01  1.950775e+00  # C graphite-A
     71       1    1   0.000000  7.401900e+00  6.125350e+01  1.950775e+00  # C graphite-A
     72       1    1   0.000000  7.401900e+00  6.552700e+01  1.950775e+00  # C graphite-A
     73       1    1   0.000000  7.401900e+00  6.980050e+01  1.950775e+00  # C graphite-A
     74       1    1   0.000000  7.401900e+00  7.407400e+01  1.950775e+00  # C graphite-A
     75       1    1   0.000000  7.401900e+00  7.834750e+01  1.950775e+00  # C graphite-A
     76       1    1   0.000000  7.401900e+00  8.262099e+01  1.950775e+00  # C graphite-A
     77       1    1   0.000000  7.401900e+00  8.689449e+01  1.950775e+00  # C graphite-A
     78       1    1   0.000000  7.401900e+00  9.116800e+01  1.950775e+00  # C graphite-A
     79       1    1   0.000000  7.401900e+00  9.544150e+01  1.950775e+00  # C graphite-A
     80       1    1   0.000000  7.401900e+00  9.971500e+01  1.950775e+00  # C graphite-A
     81       1    1   0.000000  7.401900e+00  1.039885e+02  1.950775e+00  # C graphite-A
     82       1    1   0.000000  7.401900e+00  1.082620e+02  1.950775e+00  # C graphite-A
     83       1    1   0.000000  7.401900e+00  1.125355e+02  1.950775e+00  # C graphite-A
     84       1    1   0.000000  7.401900e+00  1.168090e+02  1.950775e+00  # C graphite-A
     85       1    1   0.000000  9.869200e+00  1.424498e+00  1.950775e+00  # C graphite-A
     86       1    1   0.000000  9.869200e+00  5.697998e+00  1.950775e+00  # C graphite-A
     87       1    1   0.000000  9.869200e+00  9.971498e+00  1.950775e+00  # C graphite-A
     88       1    1   0.000000  9.869200e+00  1.424500e+01  1.950775e+00  # C graphite-A
     89       1    1   0.000000  9.869200e+00  1.851850e+01  1.950775e+00  # C graphite-A
     90       1    1   0.000000  9.869200e+00  2.279200e+01  1.950775e+00  # C graphite-A
     91       1    1   0.000000  9.869200e+00  2.706550e+01  1.950775e+00  # C graphite-A
     92       1    1   0.000000  9.869200e+00  3.133900e+01  1.950775e+00  # C graphite-A
     93       1    1   0.000000  9.869200e+00  3.561250e+01  1.950775e+00  # C graphite-A
     94       1    1   0.000000  9.869200e+00  3.988600e+01  1.950775e+00  # C graphite-A
     95       1    1   0.000000  9.869200e+00  4.415950e+01  1.950775e+00  # C graphite-A
     96       1    1   0.000000  9.869200e+00  4.843300e+01  1.950775e+00  # C graphite-A
     97       1    1   0.000000  9.869200e+00  5.270650e+01  1.950775e+00  # C graphite-A
     98       1    1   0.000000  9.869200e+00  5.698000e+01  1.950775e+00  # C graphite-A
     99       1    1   0.000000  9.869200e+00  6.125350e+01  1.950775e+00  # C graphite-A
    100       1    1   0.000000  9.869200e+00  6.552700e+01  1.950775e+00  # C graphite-A
    101       1    1   0.000000  9.869200e+00  6.980050e+01  1.950775e+00  # C graphite-A
    102       1    1   0.000000  9.869200e+00  7.407400e+01  1.950775e+00  # C graphite-A
    103       1    1   0.000000  9.869200e+00  7.834750e+01  1.950775e+00  # C graphite-A
    104       1    1   0.000000  9.869200e+00  8.262099e+01  1.950775e+00  # C graphite-A
    105       1    1   0.000000  9.869200e+00  8.689449e+01  1.950775e+00  # C graphite-A
    106       1    1   0.000000  9.869200e+00  9.116800e+01  1.950775e+00  # C graphite-A
    107       1    1   0.000000  9.869200e+00  9.544150e+01  1.950775e+00  # C graphite-A
    108       1    1   0.000000  9.869200e+00  9.971500e+01  1.950775e+00  # C graphite-A
    109       1    1   0.000000  9.869200e+00  1.039885e+02  1.950775e+00  # C graphite-A
    110       1    1   0.000000  9.869200e+00  1.082620e+02  1.950775e+00  # C graphite-A
    111       1    1   0.000000  9.869200e+00  1.125355e+02  1.950775e+00  # C graphite-A
    112       1    1   0.000000  9.869200e+00  1.168090e+02  1.950775e+00  # C graphite-A
    113       1    1   0.000000  1.233650e+01  1.424498e+00  1.950775e+00  # C graphite-A
    114       1    1   0.000000  1.233650e+01  5.697998e+00  1.950775e+00  # C graphite-A
    115       1    1   0.000000  1.233650e+01  9.971498e+00  1.950775e+00  # C graphite-A
    116       1    1   0.000000  1.233650e+01  1.424500e+01  1.950775e+00  # C graphite-A
    117       1    1   0.000000  1.233650e+01  1.851850e+01  1.950775e+00  # C graphite-A
    118       1    1   0.000000  1.233650e+01  2.279200e+01  1.950775e+00  # C graphite-A
    119       1    1   0.000000  1.233650e+01  2.706550e+01  1.950775e+00  # C graphite-A
    120       1    1   0.000000  1.233650e+01  3.133900e+01  1.950775e+00  # C graphite-A
    121       1    1   0.000000  1.233650e+01  3.561250e+01  1.950775e+00  # C graphite-A
    122       1    1   0.000000  1.233650e+01  3.988600e+01  1.950775e+00  # C graphite-A
    123       1    1   0.000000  1.233650e+01  4.415950e+01  1.950775e+00  # C graphite-A
    124       1    1   0.000000  1.233650e+01  4.843300e+01  1.950775e+00  # C graphite-A
    125       1    1   0.000000  1.233650e+01  5.270650e+01  1.950775e+00  # C graphite-A
    126       1    1   0.000000  1.233650e+01  5.698000e+01  1.950775e+00  # C graphite-A
    127       1    1   0.000000  1.233650e+01  6.125350e+01  1.950775e+00  # C graphite-A
    128       1    1   0.000000  1.233650e+01  6.552700e+01  1.950775e+00  # C graphite-A
    129       1    1   0.000000  1.233650e+01  6.980050e+01  1.950775e+00  # C graphite-A
    130       1    1   0.000000  1.233650e+01  7.407400e+01  1.950775e+00  # C graphite-A
    131       1    1   0.000000  1.233650e+01  7.834750e+01  1.950775e+00  # C graphite-A
    132       1    1   0.000000  1.233650e+01  8.262099e+01  1.950775e+00  # C graphite-A
    133       1    1   0.000000  1.233650e+01  8.689449e+01  1.950775e+00  # C graphite-A
    134       1    1   0.000000  1.233650e+01  9.116800e+01  1.950775e+00  # C graphite-A
    135       1    1   0.000000  1.233650e+01  9.544150e+01  1.950775e+00  # C graphite-A
    136       1    1   0.000000  1.233650e+01  9.971500e+01  1.950775e+00  # C graphite-A
    137       1    1   0.000000  1.233650e+01  1.039885e+02  1.950775e+00  # C graphite-A
    138       1    1   0.000000  1.233650e+01  1.082620e+02  1.950775e+00  # C graphite-A
    139       1    1   0.000000  1.233650e+01  1.125355e+02  1.950775e+00  # C graphite-A
    140       1    1   0.000000  1.233650e+01  1.168090e+02  1.950775e+00  # C graphite-A
    141       1    1   0.000000  1.480380e+01  1.424498e+00  1.950775e+00  # C graphite-A
    142       1    1   0.000000  1.480380e+01  5.697998e+00  1.950775e+00  # C graphite-A
    143       1    1   0.000000  1.480380e+01  9.971498e+00  1.950775e+00  # C graphite-A
    144       1    1   0.000000  1.480380e+01  1.424500e+01  1.950775e+00  # C graphite-A
    145       1    1   0.000000  1.480380e+01  1.851850e+01  1.950775e+00  # C graphite-A
    146       1    1   0.000000  1.480380e+01  2.279200e+01  1.950775e+00  # C graphite-A
    147       1    1   0.000000  1.480380e+01  2.706550e+01  1.950775e+00  # C graphite-A
    148       1    1   0.000000  1.480380e+01  3.133900e+01  1.950775e+00  # C graphite-A
    149       1    1   0.000000  1.480380e+01  3.561250e+01  1.950775e+00  # C graphite-A
    150       1    1   0.000000  1.480380e+01  3.988600e+01  1.950775e+00  # C graphite-A
    151       1    1   0.000000  1.480380e+01  4.415950e+01  1.950775e+00  # C graphite-A
    152       1    1   0.000000  1.480380e+01  4.843300e+01  1.950775e+00  # C graphite-A
    153       1    1   0.000000  1.480380e+01  5.270650e+01  1.950775e+00  # C graphite-A
    154       1    1   0.000000  1.480380e+01  5.698000e+01  1.950775e+00  # C graphite-A
    155       1    1   0.000000  1.480380e+01  6.125350e+01  1.950775e+00  # C graphite-A
    156       1    1   0.000000  1.480380e+01  6.552700e+01  1.950775e+00  # C graphite-A
    157       1    1   0.000000  1.480380e+01  6.980050e+01  1.950775e+00  # C graphite-A
    158       1    1   0.000000  1.480380e+01  7.407400e+01  1.950775e+00  # C graphite-A
    159       1    1   0.000000  1.480380e+01  7.834750e+01  1.950775e+00  # C graphite-A
    160       1    1   0.000000  1.480380e+01  8.262099e+01  1.950775e+00  # C graphite-A
    161       1    1   0.000000  1.480380e+01  8.689449e+01  1.950775e+00  # C graphite-A
    162       1    1   0.000000  1.480380e+01  9.116800e+01  1.950775e+00  # C graphite-A
    163       1    1   0.000000  1.480380e+01  9.544150e+01  1.950775e+00  # C graphite-A
    164       1    1   0.000000  1.480380e+01  9.971500e+01  1.950775e+00  # C graphite-A
    165       1    1   0.000000  1.480380e+01  1.039885e+02  1.950775e+00  # C graphite-A
    166       1    1   0.000000  1.480380e+01  1.082620e+02  1.950775e+00  # C graphite-A
    167       1    1   0.000000  1.480380e+01  1.125355e+02  1.950775e+00  # C graphite-A
    168       1    1   0.000000  1.480380e+01  1.168090e+02  1.950775e+00  # C graphite-A
    169       1    1   0.000000  1.727110e+01  1.424498e+00  1.950775e+00  # C graphite-A
    170       1    1   0.000000  1.727110e+01  5.697998e+00  1.950775e+00  # C graphite-A
    171       1    1   0.000000  1.727110e+01  9.971498e+00  1.950775e+00  # C graphite-A
    172       1    1   0.000000  1.727110e+01  1.424500e+01  1.950775e+00  # C graphite-A
    173       1    1   0.000000  1.727110e+01  1.851850e+01  1.950775e+00  # C graphite-A
    174       1    1   0.000000  1.727110e+01  2.279200e+01  1.950775e+00  # C graphite-A
    175       1    1   0.000000  1.727110e+01  2.706550e+01  1.950775e+00  # C graphite-A
    176       1    1   0.000000  1.727110e+01  3.133900e+01  1.950775e+00  # C graphite-A
    177       1    1   0.000000  1.727110e+01  3.561250e+01  1.950775e+00  # C graphite-A
    178       1    1   0.000000  1.727110e+01  3.988600e+01  1.950775e+00  # C graphite-A
    179       1    1   0.000000  1.727110e+01  4.415950e+01  1.950775e+00  # C graphite-A
    180       1    1   0.000000  1.727110e+01  4.843300e+01  1.950775e+00  # C graphite-A
    181       1    1   0.000000  1.727110e+01  5.270650e+01  1.950775e+00  # C graphite-A
    182       1    1   0.000000  1.727110e+01  5.698000e+01  1.950775e+00  # C graphite-A
    183       1    1   0.000000  1.727110e+01  6.125350e+01  1.950775e+00  # C graphite-A
    184       1    1   0.000000  1.727110e+01  6.552700e+01  1.950775e+00  # C graphite-A
    185       1    1   0.000000  1.727110e+01  6.980050e+01  1.950775e+00  # C graphite-A
    186       1    1   0.000000  1.727110e+01  7.407400e+01  1.950775e+00  # C graphite-A
    187       1    1   0.000000  1.727110e+01  7.834750e+01  1.950775e+00  # C graphite-A
    188       1    1   0.000000  1.727110e+01  8.262099e+01  1.950775e+00  # C graphite-A
    189       1    1   0.000000  1.727110e+01  8.689449e+01  1.950775e+00  # C graphite-A
    190       1    1   0.000000  1.727110e+01  9.116800e+01  1.950775e+00  # C graphite-A
    191       1    1   0.000000  1.727110e+01  9.544150e+01  1.950775e+00  # C graphite-A
    192       1    1   0.000000  1.727110e+01  9.971500e+01  1.950775e+00  # C graphite-A
    193       1    1   0.000000  1.727110e+01  1.039885e+02  1.950775e+00  # C graphite-A
    194       1    1   0.000000  1.727110e+01  1.082620e+02  1.950775e+00  # C graphite-A
    195       1    1   0.000000  1.727110e+01  1.125355e+02  1.950775e+00  # C graphite-A
    196       1    1   0.000000  1.727110e+01  1.168090e+02  1.950775e+00  # C graphite-A
    197       1    1   0.000000  1.973840e+01  1.424498e+00  1.950775e+00  # C graphite-A
    198       1    1   0.000000  1.973840e+01  5.697998e+00  1.950775e+00  # C graphite-A
    199       1    1   0.000000  1.973840e+01  9.971498e+00  1.950775e+00  # C graphite-A
    200       1    1   0.000000  1.973840e+01  1.424500e+01  1.950775e+00  # C graphite-A
    201       1    1   0.000000  1.973840e+01  1.851850e+01  1.950775e+00  # C graphite-A
    202       1    1   0.000000  1.973840e+01  2.279200e+01  1.950775e+00  # C graphite-A
    203       1    1   0.000000  1.973840e+01  2.706550e+01  1.950775e+00  # C graphite-A
    204       1    1   0.000000  1.973840e+01  3.133900e+01  1.950775e+00  # C graphite-A
    205       1    1   0.000000  1.973840e+01  3.561250e+01  1.950775e+00  # C graphite-A
    206       1    1   0.000000  1.973840e+01  3.988600e+01  1.950775e+00  # C graphite-A
    207       1    1   0.000000  1.973840e+01  4.415950e+01  1.950775e+00  # C graphite-A
    208       1    1   0.000000  1.973840e+01  4.843300e+01  1.950775e+00  # C graphite-A
    209       1    1   0.000000  1.973840e+01  5.270650e+01  1.950775e+00  # C graphite-A
    210       1    1   0.000000  1.973840e+01  5.698000e+01  1.950775e+00  # C graphite-A
    211       1    1   0.000000  1.973840e+01  6.125350e+01  1.950775e+00  # C graphite-A
    212       1    1   0.000000  1.973840e+01  6.552700e+01  1.950775e+00  # C graphite-A
    213       1    1   0.000000  1.973840e+01  6.980050e+01  1.950775e+00  # C graphite-A
    214       1    1   0.000000  1.973840e+01  7.407400e+01  1.950775e+00  # C graphite-A
    215       1    1   0.000000  1.973840e+01  7.834750e+01  1.950775e+00  # C graphite-A
    216       1    1   0.000000  1.973840e+01  8.262099e+01  1.950775e+00  # C graphite-A
    217       1    1   0.000000  1.973840e+01  8.689449e+01  1.950775e+00  # C graphite-A
    218       1    1   0.000000  1.973840e+01  9.116800e+01  1.950775e+00  # C graphite-A
    219       1    1   0.000000  1.973840e+01  9.544150e+01  1.950775e+00  # C graphite-A
    220       1    1   0.000000  1.973840e+01  9.971500e+01  1.950775e+00  # C graphite-A
    221       1    1   0.000000  1.973840e+01  1.039885e+02  1.950775e+00  # C graphite-A
    222       1    1   0.000000  1.973840e+01  1.082620e+02  1.950775e+00  # C graphite-A
    223       1    1   0.000000  1.973840e+01  1.125355e+02  1.950775e+00  # C graphite-A
    224       1    1   0.000000  1.973840e+01  1.168090e+02  1.950775e+00  # C graphite-A
    225       1    1   0.000000  2.220570e+01  1.424498e+00  1.950775e+00  # C graphite-A
    226       1    1   0.000000  2.220570e+01  5.697998e+00  1.950775e+00  # C graphite-A
    227       1    1   0.000000  2.220570e+01  9.971498e+00  1.950775e+00  # C graphite-A
    228       1    1   0.000000  2.220570e+01  1.424500e+01  1.950775e+00  # C graphite-A
    229       1    1   0.000000  2.220570e+01  1.851850e+01  1.950775e+00  # C graphite-A
    230       1    1   0.000000  2.220570e+01  2.279200e+01  1.950775e+00  # C graphite-A
    231       1    1   0.000000  2.220570e+01  2.706550e+01  1.950775e+00  # C graphite-A
    232       1    1   0.000000  2.220570e+01  3.133900e+01  1.950775e+00  # C graphite-A
    233       1    1   0.000000  2.220570e+01  3.561250e+01  1.950775e+00  # C graphite-A
    234       1    1   0.000000  2.220570e+01  3.988600e+01  1.950775e+00  # C graphite-A
    235       1    1   0.000000  2.220570e+01  4.415950e+01  1.950775e+00  # C graphite-A
    236       1    1   0.000000  2.220570e+01  4.843300e+01  1.950775e+00  # C graphite-A
    237       1    1   0.000000  2.220570e+01  5.270650e+01  1.950775e+00  # C graphite-A
    238       1    1   0.000000  2.220570e+01  5.698000e+01  1.950775e+00  # C graphite-A
    239       1    1   0.000000  2.220570e+01  6.125350e+01  1.950775e+00  # C graphite-A
    240       1    1   0.000000  2.220570e+01  6.552700e+01  1.950775e+00  # C graphite-A
    241       1    1   0.000000  2.220570e+01  6.980050e+01  1.950775e+00  # C graphite-A
    242       1    1   0.000000  2.220570e+01  7.407400e+01  1.950775e+00  # C graphite-A
    243       1    1   0.000000  2.220570e+01  7.834750e+01  1.950775e+00  # C graphite-A
    244       1    1   0.000000  2.220570e+01  8.262099e+01  1.950775e+00  # C graphite-A
    245       1    1   0.000000  2.220570e+01  8.689449e+01  1.950775e+00  # C graphite-A
    246       1    1   0.000000  2.220570e+01  9.116800e+01  1.950775e+00  # C graphite-A
    247       1    1   0.000000  2.220570e+01  9.544150e+01  1.950775e+00  # C graphite-A
    248       1    1   0.000000  2.220570e+01  9.971500e+01  1.950775e+00  # C graphite-A
    249       1    1   0.000000  2.220570e+01  1.039885e+02  1.950775e+00  # C graphite-A
    250       1    1   0.000000  2.220570e+01  1.082620e+02  1.950775e+00  # C graphite-A
    251       1    1   0.000000  2.220570e+01  1.125355e+02  1.950775e+00  # C graphite-A
    252       1    1   0.000000  2.220570e+01  1.168090e+02  1.950775e+00  # C graphite-A
    253       1    1   0.000000  2.467300e+01  1.424498e+00  1.950775e+00  # C graphite-A
    254       1    1   0.000000  2.467300e+01  5.697998e+00  1.950775e+00  # C graphite-A
    255       1    1   0.000000  2.467300e+01  9.971498e+00  1.950775e+00  # C graphite-A
    256       1    1   0.000000  2.467300e+01  1.424500e+01  1.950775e+00  # C graphite-A
    257       1    1   0.000000  2.467300e+01  1.851850e+01  1.950775e+00  # C graphite-A
    258       1    1   0.000000  2.467300e+01  2.279200e+01  1.950775e+00  # C graphite-A
    259       1    1   0.000000  2.467300e+01  2.706550e+01  1.950775e+00  # C graphite-A
    260       1    1   0.000000  2.467300e+01  3.133900e+01  1.950775e+00  # C graphite-A
    261       1    1   0.000000  2.467300e+01  3.561250e+01  1.950775e+00  # C graphite-A
    262       1    1   0.000000  2.467300e+01  3.988600e+01  1.950775e+00  # C graphite-A
    263       1    1   0.000000  2.467300e+01  4.415950e+01  1.950775e+00  # C graphite-A
    264       1    1   0.000000  2.467300e+01  4.843300e+01  1.950775e+00  # C graphite-A
    265       1    1   0.000000  2.467300e+01  5.270650e+01  1.950775e+00  # C graphite-A
    266       1    1   0.000000  2.467300e+01  5.698000e+01  1.950775e+00  # C graphite-A
    267       1    1   0.000000  2.467300e+01  6.125350e+01  1.950775e+00  # C graphite-A
    268       1    1   0.000000  2.467300e+01  6.552700e+01  1.950775e+00  # C graphite-A
    269       1    1   0.000000  2.467300e+01  6.980050e+01  1.950775e+00  # C graphite-A
    270       1    1   0.000000  2.467300e+01  7.407400e+01  1.950775e+00  # C graphite-A
    271       1    1   0.000000  2.467300e+01  7.834750e+01  1.950775e+00  # C graphite-A
    272       1    1   0.000000  2.467300e+01  8.262099e+01  1.950775e+00  # C graphite-A
    273       1    1   0.000000  2.467300e+01  8.689449e+01  1.950775e+00  # C graphite-A
    274       1    1   0.000000  2.467300e+01  9.116800e+01  1.950775e+00  # C graphite-A
    275       1    1   0.000000  2.467300e+01  9.544150e+01  1.950775e+00  # C graphite-A
    276       1    1   0.000000  2.467300e+01  9.971500e+01  1.950775e+00  # C graphite-A
    277       1    1   0.000000  2.467300e+01  1.039885e+02  1.950775e+00  # C graphite-A
    278       1    1   0.000000  2.467300e+01  1.082620e+02  1.950775e+00  # C graphite-A
    279       1    1   0.000000  2.467300e+01  1.125355e+02  1.950775e+00  # C graphite-A
    280       1    1   0.000000  2.467300e+01  1.168090e+02  1.950775e+00  # C graphite-A
    281       1    1   0.000000  2.714030e+01  1.424498e+00  1.950775e+00  # C graphite-A
    282       1    1   0.000000  2.714030e+01  5.697998e+00  1.950775e+00  # C graphite-A
    283       1    1   0.000000  2.714030e+01  9.971498e+00  1.950775e+00  # C graphite-A
    284       1    1   0.000000  2.714030e+01  1.424500e+01  1.950775e+00  # C graphite-A
    285       1    1   0.000000  2.714030e+01  1.851850e+01  1.950775e+00  # C graphite-A
    286       1    1   0.000000  2.714030e+01  2.279200e+01  1.950775e+00  # C graphite-A
    287       1    1   0.000000  2.714030e+01  2.706550e+01  1.950775e+00  # C graphite-A
    288       1    1   0.000000  2.714030e+01  3.133900e+01  1.950775e+00  # C graphite-A
    289       1    1   0.000000  2.714030e+01  3.561250e+01  1.950775e+00  # C graphite-A
    290       1    1   0.000000  2.714030e+01  3.988600e+01  1.950775e+00  # C graphite-A
    291       1    1   0.000000  2.714030e+01  4.415950e+01  1.950775e+00  # C graphite-A
    292       1    1   0.000000  2.714030e+01  4.843300e+01  1.950775e+00  # C graphite-A
    293       1    1   0.000000  2.714030e+01  5.270650e+01  1.950775e+00  # C graphite-A
    294       1    1   0.000000  2.714030e+01  5.698000e+01  1.950775e+00  # C graphite-A
    295       1    1   0.000000  2.714030e+01  6.125350e+01  1.950775e+00  # C graphite-A
    296       1    1   0.000000  2.714030e+01  6.552700e+01  1.950775e+00  # C graphite-A
    297       1    1   0.000000  2.714030e+01  6.980050e+01  1.950775e+00  # C graphite-A
    298       1    1   0.000000  2.714030e+01  7.407400e+01  1.950775e+00  # C graphite-A
    299       1    1   0.000000  2.714030e+01  7.834750e+01  1.950775e+00  # C graphite-A
    300       1    1   0.000000  2.714030e+01  8.262099e+01  1.950775e+00  # C graphite-A
    301       1    1   0.000000  2.714030e+01  8.689449e+01  1.950775e+00  # C graphite-A
    302       1    1   0.000000  2.714030e+01  9.116800e+01  1.950775e+00  # C graphite-A
    303       1    1   0.000000  2.714030e+01  9.544150e+01  1.950775e+00  # C graphite-A
    304       1    1   0.000000  2.714030e+01  9.971500e+01  1.950775e+00  # C graphite-A
    305       1    1   0.000000  2.714030e+01  1.039885e+02  1.950775e+00  # C graphite-A
    306       1    1   0.000000  2.714030e+01  1.082620e+02  1.950775e+00  # C graphite-A
    307       1    1   0.000000  2.714030e+01  1.125355e+02  1.950775e+00  # C graphite-A
    308       1    1   0.000000  2.714030e+01  1.168090e+02  1.950775e+00  # C graphite-A
    309       1    1   0.000000  2.960760e+01  1.424498e+00  1.950775e+00  # C graphite-A
    310       1    1   0.000000  2.960760e+01  5.697998e+00  1.950775e+00  # C graphite-A
    311       1    1   0.000000  2.960760e+01  9.971498e+00  1.950775e+00  # C graphite-A
    312       1    1   0.000000  2.960760e+01  1.424500e+01  1.950775e+00  # C graphite-A
    313       1    1   0.000000  2.960760e+01  1.851850e+01  1.950775e+00  # C graphite-A
    314       1    1   0.000000  2.960760e+01  2.279200e+01  1.950775e+00  # C graphite-A
    315       1    1   0.000000  2.960760e+01  2.706550e+01  1.950775e+00  # C graphite-A
    316       1    1   0.000000  2.960760e+01  3.133900e+01  1.950775e+00  # C graphite-A
    317       1    1   0.000000  2.960760e+01  3.561250e+01  1.950775e+00  # C graphite-A
    318       1    1   0.000000  2.960760e+01  3.988600e+01  1.950775e+00  # C graphite-A
    319       1    1   0.000000  2.960760e+01  4.415950e+01  1.950775e+00  # C graphite-A
    320       1    1   0.000000  2.960760e+01  4.843300e+01  1.950775e+00  # C graphite-A
    321       1    1   0.000000  2.960760e+01  5.270650e+01  1.950775e+00  # C graphite-A
    322       1    1   0.000000  2.960760e+01  5.698000e+01  1.950775e+00  # C graphite-A
    323       1    1   0.000000  2.960760e+01  6.125350e+01  1.950775e+00  # C graphite-A
    324       1    1   0.000000  2.960760e+01  6.552700e+01  1.950775e+00  # C graphite-A
    325       1    1   0.000000  2.960760e+01  6.980050e+01  1.950775e+00  # C graphite-A
    326       1    1   0.000000  2.960760e+01  7.407400e+01  1.950775e+00  # C graphite-A
    327       1    1   0.000000  2.960760e+01  7.834750e+01  1.950775e+00  # C graphite-A
    328       1    1   0.000000  2.960760e+01  8.262099e+01  1.950775e+00  # C graphite-A
    329       1    1   0.000000  2.960760e+01  8.689449e+01  1.950775e+00  # C graphite-A